# vtk DataFile Version 2.0
track0
ASCII
DATASET POLYDATA
POINTS 10920 double
-0.0205 0.001 1e-05
-0.0202034 0.00100022 1e-05
-0.0199069 0.00100067 1e-05
-0.0196103 0.00100132 1e-05
-0.0193137 0.00100216 1e-05
-0.0190172 0.0010032 1e-05
-0.0187132 0.00100461 1e-05
-0.0184093 0.00100572 1e-05
-0.0181054 0.00100681 1e-05
-0.0178015 0.00100785 1e-05
-0.0174976 0.00100886 1e-05
-0.0172058 0.00101001 1e-05
-0.016914 0.00101082 1e-05
-0.0166222 0.0010116 1e-05
-0.0163305 0.00101236 1e-05
-0.0160387 0.00101308 1e-05
-0.0157586 0.00101395 1e-05
-0.0154784 0.00101463 1e-05
-0.0151983 0.00101536 1e-05
-0.0149182 0.00101612 1e-05
-0.0146381 0.00101692 1e-05
-0.0143692 0.00101784 1e-05
-0.0141002 0.00101869 1e-05
-0.0138313 0.0010196 1e-05
-0.0135624 0.00102056 1e-05
-0.0132934 0.00102157 1e-05
-0.0130397 0.00102262 1e-05
-0.0127859 0.00102366 1e-05
-0.0125322 0.00102474 1e-05
-0.0122784 0.00102585 1e-05
-0.012066 0.00102682 1e-05
-0.0120533 0.00102688 1e-05
-0.0120406 0.00102694 1e-05
-0.0120279 0.001027 1e-05
-0.0120152 0.00102705 1e-05
-0.0120025 0.00102711 1e-05
-0.0117547 0.00102828 1e-05
-0.0115068 0.00102947 1e-05
-0.0112589 0.00103068 1e-05
-0.0110111 0.00103192 1e-05
-0.0107632 0.00103318 1e-05
-0.0105252 0.0010344 1e-05
-0.0102873 0.00103565 1e-05
-0.0100493 0.00103691 1e-05
-0.00981133 0.00103819 1e-05
-0.00957337 0.00103948 1e-05
-0.00934491 0.00104072 1e-05
-0.00911645 0.00104197 1e-05
-0.008888 0.00104324 1e-05
-0.00865954 0.00104451 1e-05
-0.00843108 0.0010458 1e-05
-0.00821175 0.00104701 1e-05
-0.00799242 0.00104825 1e-05
-0.00777309 0.00104949 1e-05
-0.00755376 0.00105074 1e-05
-0.00733443 0.00105198 1e-05
-0.00712387 0.00105316 1e-05
-0.0069133 0.00105436 1e-05
-0.00670273 0.00105556 1e-05
-0.00649217 0.00105675 1e-05
-0.0062816 0.00105795 1e-05
-0.00607944 0.00105908 1e-05
-0.00587729 0.00106022 1e-05
-0.00567514 0.00106136 1e-05
-0.00547298 0.0010625 1e-05
-0.00527083 0.00106363 1e-05
-0.00507675 0.0010647 1e-05
-0.00488267 0.00106578 1e-05
-0.0046886 0.00106686 1e-05
-0.00449452 0.00106793 1e-05
-0.00430044 0.001069 1e-05
-0.00411412 0.00107001 1e-05
-0.0039278 0.00107102 1e-05
-0.00374147 0.00107203 1e-05
-0.00355515 0.00107303 1e-05
-0.00336883 0.00107403 1e-05
-0.00318995 0.00107497 1e-05
-0.00301107 0.00107591 1e-05
-0.00283219 0.00107685 1e-05
-0.00265331 0.00107778 1e-05
-0.00247443 0.0010787 1e-05
-0.0023027 0.00107957 1e-05
-0.00213097 0.00108043 1e-05
-0.00195924 0.00108129 1e-05
-0.0017875 0.00108214 1e-05
-0.00161577 0.00108299 1e-05
-0.0014509 0.00108377 1e-05
-0.00128603 0.00108456 1e-05
-0.00112116 0.00108533 1e-05
-0.000956289 0.00108608 1e-05
-0.000791418 0.00108683 1e-05
-0.000633135 0.00108752 1e-05
-0.000474851 0.0010882 1e-05
-0.000316567 0.00108886 1e-05
-0.000158283 0.00108949 1e-05
0 0.00109011 1e-05
0.000105677 0.0010905 1e-05
0.000211355 0.00109089 1e-05
0.000317032 0.00109126 1e-05
0.00042271 0.00109163 1e-05
0.000528387 0.00109198 1e-05
0.000634886 0.00109231 1e-05
0.000741385 0.00109264 1e-05
0.000847885 0.00109297 1e-05
0.000954384 0.00109328 1e-05
0.00106088 0.00109358 1e-05
0.00116821 0.00109387 1e-05
0.00127554 0.00109416 1e-05
0.00138286 0.00109444 1e-05
0.00149019 0.00109471 1e-05
0.00159752 0.00109497 1e-05
0.00170568 0.00109522 1e-05
0.00181384 0.00109547 1e-05
0.001922 0.0010957 1e-05
0.00203016 0.00109593 1e-05
0.00213833 0.00109615 1e-05
0.00224733 0.00109635 1e-05
0.00235633 0.00109656 1e-05
0.00246533 0.00109676 1e-05
0.00257434 0.00109695 1e-05
0.00268334 0.00109713 1e-05
0.00279319 0.0010973 1e-05
0.00290304 0.00109747 1e-05
0.00301289 0.00109764 1e-05
0.00312274 0.0010978 1e-05
0.00323259 0.00109795 1e-05
0.00334329 0.00109809 1e-05
0.003454 0.00109824 1e-05
0.0035647 0.00109838 1e-05
0.0036754 0.00109852 1e-05
0.00378611 0.00109865 1e-05
0.00389767 0.00109877 1e-05
0.00400924 0.0010989 1e-05
0.0041208 0.00109902 1e-05
0.00423237 0.00109914 1e-05
0.00434393 0.00109925 1e-05
0.00445636 0.00109935 1e-05
0.00456879 0.00109945 1e-05
0.00468123 0.00109955 1e-05
0.00479366 0.00109965 1e-05
0.00490609 0.00109974 1e-05
0.0050194 0.00109982 1e-05
0.0051327 0.0010999 1e-05
0.00524601 0.00109998 1e-05
0.00535931 0.00110006 1e-05
0.00547262 0.00110013 1e-05
0.00558681 0.00110019 1e-05
0.005701 0.00110026 1e-05
0.00581518 0.00110032 1e-05
0.00592937 0.00110037 1e-05
0.00604356 0.00110042 1e-05
0.00612268 0.00110045 1e-05
0.00620181 0.00110048 1e-05
0.00628093 0.00110051 1e-05
0.00636006 0.00110054 1e-05
0.00643764 0.00110056 1e-05
0.0064739 0.00110057 1e-05
0.00651016 0.00110058 1e-05
0.00654642 0.00110059 1e-05
0.00658267 0.0011006 1e-05
0.00661893 0.00110061 1e-05
0.0067349 0.00110064 1e-05
0.00685087 0.00110066 1e-05
0.00696684 0.00110068 1e-05
0.00708281 0.00110069 1e-05
0.00719878 0.0011007 1e-05
0.00731565 0.0011007 1e-05
0.00743252 0.0011007 1e-05
0.00754939 0.0011007 1e-05
0.00766626 0.00110069 1e-05
0.00778313 0.00110068 1e-05
0.00790091 0.00110065 1e-05
0.00801869 0.00110063 1e-05
0.00813647 0.0011006 1e-05
0.00825425 0.00110057 1e-05
0.00837203 0.00110054 1e-05
0.00849073 0.00110048 1e-05
0.00860942 0.00110043 1e-05
0.00872812 0.00110038 1e-05
0.00884682 0.00110033 1e-05
0.00896551 0.00110026 1e-05
0.00908513 0.00110018 1e-05
0.00920475 0.00110011 1e-05
0.00932437 0.00110003 1e-05
0.00944398 0.00109994 1e-05
0.0095636 0.00109986 1e-05
0.00968415 0.00109974 1e-05
0.0098047 0.00109964 1e-05
0.00992525 0.00109953 1e-05
0.0100458 0.00109942 1e-05
0.0101663 0.0010993 1e-05
0.0102878 0.00109915 1e-05
0.0104093 0.00109902 1e-05
0.0105308 0.00109888 1e-05
0.0106523 0.00109874 1e-05
0.0107738 0.00109859 1e-05
0.0108962 0.0010984 1e-05
0.0110186 0.00109824 1e-05
0.0111411 0.00109807 1e-05
0.0112635 0.0010979 1e-05
0.0113859 0.00109771 1e-05
0.0115093 0.00109749 1e-05
0.0116327 0.00109729 1e-05
0.0117561 0.00109709 1e-05
0.0118795 0.00109688 1e-05
0.0120028 0.00109667 1e-05
0.0121272 0.00109641 1e-05
0.0122515 0.00109617 1e-05
0.0123759 0.00109593 1e-05
0.0125002 0.00109569 1e-05
0.0126245 0.00109543 1e-05
0.0127498 0.00109513 1e-05
0.0128752 0.00109486 1e-05
0.0130005 0.00109459 1e-05
0.0131258 0.0010943 1e-05
0.0132511 0.00109401 1e-05
0.0133774 0.00109367 1e-05
0.0135036 0.00109336 1e-05
0.0136299 0.00109304 1e-05
0.0137562 0.00109271 1e-05
0.0138825 0.00109238 1e-05
0.0140098 0.001092 1e-05
0.014137 0.00109164 1e-05
0.0142643 0.00109128 1e-05
0.0143915 0.00109091 1e-05
0.0145188 0.00109053 1e-05
0.0146471 0.00109011 1e-05
0.0147753 0.0010897 1e-05
0.0149036 0.0010893 1e-05
0.0150318 0.00108889 1e-05
0.0151601 0.00108846 1e-05
0.0152893 0.00108799 1e-05
0.0154186 0.00108754 1e-05
0.0155478 0.00108709 1e-05
0.0156771 0.00108663 1e-05
0.0158063 0.00108615 1e-05
0.0159366 0.00108564 1e-05
0.0160668 0.00108514 1e-05
0.0161971 0.00108464 1e-05
0.0163274 0.00108414 1e-05
0.0164576 0.00108361 1e-05
0.0165889 0.00108305 1e-05
0.0167201 0.0010825 1e-05
0.0168514 0.00108195 1e-05
0.0169827 0.00108139 1e-05
0.0171139 0.00108082 1e-05
0.0172462 0.00108021 1e-05
0.0173785 0.00107961 1e-05
0.0175108 0.00107901 1e-05
0.0176431 0.0010784 1e-05
0.0177754 0.00107777 1e-05
0.0179087 0.00107712 1e-05
0.018042 0.00107647 1e-05
0.0181753 0.00107581 1e-05
0.0183087 0.00107515 1e-05
0.018442 0.00107447 1e-05
0.0185763 0.00107377 1e-05
0.0187107 0.00107306 1e-05
0.018845 0.00107235 1e-05
0.0189794 0.00107164 1e-05
0.0191137 0.0010709 1e-05
0.0192491 0.00107015 1e-05
0.0193845 0.00106939 1e-05
0.0195199 0.00106862 1e-05
0.0196553 0.00106785 1e-05
0.0197907 0.00106706 1e-05
0.0199272 0.00106626 1e-05
0.0200636 0.00106544 1e-05
0.0202001 0.00106462 1e-05
0.0203365 0.00106378 1e-05
0.020473 0.00106294 1e-05
0.0206105 0.00106208 1e-05
0.020748 0.00106121 1e-05
0.0208855 0.00106033 1e-05
0.021023 0.00105944 1e-05
0.0211606 0.00105854 1e-05
0.0212991 0.00105763 1e-05
0.0214377 0.0010567 1e-05
0.0215763 0.00105576 1e-05
0.0217149 0.00105481 1e-05
0.0218535 0.00105385 1e-05
0.0219931 0.00105288 1e-05
0.0221328 0.0010519 1e-05
0.0222724 0.0010509 1e-05
0.0224121 0.00104989 1e-05
0.0225517 0.00104887 1e-05
0.0226925 0.00104785 1e-05
0.0228332 0.00104681 1e-05
0.022974 0.00104575 1e-05
0.0231147 0.00104467 1e-05
0.0232555 0.0010436 1e-05
0.0233973 0.00104253 1e-05
0.0235391 0.00104143 1e-05
0.023681 0.0010403 1e-05
0.0238228 0.00103917 1e-05
0.0239647 0.00103804 1e-05
0.0241076 0.00103691 1e-05
0.0242505 0.00103575 1e-05
0.0243935 0.00103456 1e-05
0.0245364 0.00103337 1e-05
0.0246794 0.00103218 1e-05
0.0248234 0.00103099 1e-05
0.0249675 0.00102977 1e-05
0.0251115 0.00102853 1e-05
0.0252556 0.00102727 1e-05
0.0253996 0.00102602 1e-05
0.0255448 0.00102478 1e-05
0.02569 0.0010235 1e-05
0.0258351 0.00102219 1e-05
0.0259803 0.00102088 1e-05
0.0261255 0.00101957 1e-05
0.0262718 0.00101826 1e-05
0.0264181 0.00101692 1e-05
0.0265644 0.00101556 1e-05
0.0267107 0.00101419 1e-05
0.026857 0.00101282 1e-05
0.0270044 0.00101145 1e-05
0.0271519 0.00101005 1e-05
0.0272993 0.00100862 1e-05
0.0274468 0.00100719 1e-05
0.0275942 0.00100576 1e-05
0.0277428 0.00100433 1e-05
0.0278914 0.00100286 1e-05
0.0280399 0.00100138 1e-05
0.0281885 0.000999888 1e-05
0.0283371 0.000998394 1e-05
0.0284869 0.0009969 1e-05
0.0286366 0.000995371 1e-05
0.0287863 0.000993827 1e-05
0.0289361 0.000992275 1e-05
0.0290858 0.000990716 1e-05
0.0292367 0.000989159 1e-05
0.0293876 0.000987564 1e-05
0.0295385 0.000985959 1e-05
0.0296894 0.000984344 1e-05
0.0298403 0.000982721 1e-05
0.0299924 0.000981097 1e-05
0.0301445 0.000979438 1e-05
0.0302966 0.000977769 1e-05
0.0304486 0.000976092 1e-05
0.0306007 0.000974404 1e-05
0.030754 0.000972713 1e-05
0.0309072 0.00097099 1e-05
0.0310605 0.000969257 1e-05
0.0312138 0.000967515 1e-05
0.031367 0.000965762 1e-05
0.0315215 0.000964002 1e-05
0.0316759 0.000962213 1e-05
0.0318304 0.000960415 1e-05
0.0319848 0.000958606 1e-05
0.0321393 0.000956787 1e-05
0.0322949 0.000954955 1e-05
0.0324506 0.000953099 1e-05
0.0326062 0.000951233 1e-05
0.0327619 0.000949356 1e-05
0.0329175 0.000947468 1e-05
0.0330744 0.000945563 1e-05
0.0332313 0.000943637 1e-05
0.0333881 0.000941701 1e-05
0.033545 0.000939753 1e-05
[...]
POINT_DATA 10920
 FIELD attributes 2
p 1 10920 float
-6.11573 -6.11125 -6.10372 -6.09611 -6.0884 -6.07607 -6.08243 -6.094 -6.10557 -6.11714 -6.14259 -6.16225 -6.19499 -6.22773 -6.26047 -6.30003 -6.31448 -6.34011 -6.36574 -6.39138 -6.42223 -6.44116 -6.46619 -6.49124 -6.51631 -6.54391 -6.56729 -6.5927 -6.61812 -6.64355 -6.66484 -6.66612 -6.66739 -6.66866 -6.66994 -6.67117 -6.69407 -6.71695 -6.73984 -6.76273 -6.78476 -6.80448 -6.82366 -6.84284 -6.86202 -6.87984 -6.89761 -6.91454 -6.93148 -6.94842 -6.96381 -6.98051 -6.99622 -7.01193 -7.02764 -7.04174 -7.0576 -7.0724 -7.0872 -7.10199 -7.11519 -7.13031 -7.14439 -7.15847 -7.17255 -7.18515 -7.19972 -7.21337 -7.22702 -7.24066 -7.25299 -7.26729 -7.28083 -7.29436 -7.3079 -7.32029 -7.33456 -7.34825 -7.36195 -7.37565 -7.38829 -7.40277 -7.41702 -7.43127 -7.44552 -7.45875 -7.4735 -7.48827 -7.50304 -7.51781 -7.53113 -7.54434 -7.55672 -7.5691 -7.58148 -7.59159 -7.59922 -7.60506 -7.61089 -7.61672 -7.62113 -7.62457 -7.62589 -7.6272 -7.62852 -7.62911 -7.63117 -7.63232 -7.63347 -7.63463 -7.63579 -7.63985 -7.64215 -7.64445 -7.64675 -7.64784 -7.65241 -7.65415 -7.6559 -7.65764 -7.65717 -7.66091 -7.66202 -7.66312 -7.66422 -7.66311 -7.66624 -7.6674 -7.66856 -7.66971 -7.66911 -7.67177 -7.67302 -7.67427 -7.67552 -7.67553 -7.6775 -7.67853 -7.67956 -7.68059 -7.68088 -7.68213 -7.68286 -7.68359 -7.68432 -7.68471 -7.68553 -7.68611 -7.6867 -7.68728 -7.68778 -7.68823 -7.68861 -7.689 -7.68939 -7.68977 -7.68994 -7.69012 -7.6903 -7.69048 -7.69064 -7.69123 -7.69179 -7.69235 -7.69291 -7.69339 -7.69405 -7.69463 -7.6952 -7.69578 -7.69626 -7.69694 -7.69757 -7.6982 -7.69883 -7.69945 -7.70008 -7.70079 -7.7015 -7.70221 -7.70313 -7.70357 -7.70437 -7.70517 -7.70597 -7.70733 -7.70748 -7.70837 -7.70926 -7.71016 -7.71208 -7.71181 -7.7128 -7.71379 -7.71479 -7.71739 -7.71662 -7.71772 -7.71881 -7.71991 -7.72329 -7.72196 -7.72316 -7.72436 -7.72557 -7.72979 -7.72787 -7.72918 -7.7305 -7.73182 -7.73692 -7.7344 -7.73582 -7.73725 -7.73868 -7.74466 -7.7417 -7.74307 -7.74463 -7.74666 -7.75307 -7.75009 -7.75113 -7.75284 -7.75554 -7.76229 -7.75942 -7.76011 -7.76196 -7.76533 -7.77223 -7.76955 -7.76986 -7.77183 -7.77582 -7.78279 -7.78031 -7.78028 -7.78237 -7.78696 -7.79396 -7.7918 -7.79149 -7.79373 -7.7989 -7.8059 -7.80416 -7.8037 -7.80609 -7.81173 -7.8186 -7.81732 -7.81677 -7.81929 -7.82528 -7.83194 -7.83111 -7.83052 -7.83317 -7.83942 -7.84585 -7.84547 -7.84509 -7.84794 -7.85414 -7.86034 -7.86041 -7.86048 -7.86346 -7.86942 -7.87538 -7.8759 -7.87642 -7.87951 -7.88523 -7.89095 -7.8919 -7.89286 -7.89606 -7.90155 -7.90704 -7.90841 -7.90978 -7.9131 -7.91837 -7.92364 -7.9254 -7.92716 -7.93058 -7.93565 -7.94072 -7.94285 -7.94498 -7.94849 -7.95338 -7.95827 -7.96073 -7.96319 -7.96679 -7.97152 -7.97625 -7.97901 -7.98185 -7.98556 -7.99005 -7.99465 -7.99768 -8.00087 -8.00465 -8.00896 -8.01345 -8.0167 -8.02017 -8.02403 -8.02821 -8.03261 -8.03607 -8.03975 -8.04367 -8.04778 -8.05211 -8.05574 -8.05959 -8.06357 -8.06764 -8.07194 -8.07571 -8.07969 -8.08372 -8.08778 -8.09206 -8.09599 -8.10005 -8.10413 -8.10821 -8.11245 -8.11652 -8.12064 -8.12476 -8.12888 -8.13306 -8.13723 -8.14138 -8.14553 -8.14968 -8.15383 -8.15803 -8.16219 -8.16636 -8.17053 -8.17467 -8.17887 -8.18304 -8.18721 -8.19139 -8.19553 -8.19972 -8.20388 -8.20805 -8.21221 -8.21636 -8.22048 -8.2246 -8.22872 -8.23283 -8.23678 -8.23685 -8.23691 -8.23697 -8.23704 -8.2371 -8.24122 -8.24535 -8.24947 -8.2536 -8.25776 -8.26182 -8.2659 -8.26998 -8.27406 -8.27821 -8.28219 -8.28622 -8.29024 -8.29427 -8.29838 -8.30229 -8.30624 -8.3102 -8.31415 -8.3182 -8.32203 -8.3259 -8.32977 -8.33363 -8.3376 -8.34134 -8.3451 -8.34887 -8.35263 -8.35648 -8.36013 -8.36377 -8.36741 -8.37106 -8.37476 -8.37829 -8.3818 -8.3853 -8.38881 -8.39235 -8.39574 -8.39911 -8.40244 -8.40579 -8.40914 -8.41237 -8.41559 -8.41874 -8.42189 -8.42504 -8.42808 -8.43113 -8.43407 -8.43699 -8.43991 -8.44275 -8.44559 -8.44831 -8.45097 -8.45362 -8.45622 -8.45882 -8.4613 -8.46367 -8.46605 -8.46838 -8.47071 -8.47293 -8.47501 -8.47709 -8.47914 -8.48118 -8.48312 -8.48487 -8.48662 -8.48834 -8.49007 -8.49167 -8.49308 -8.49448 -8.49586 -8.4972 -8.49845 -8.49953 -8.50055 -8.50156 -8.5025 -8.50335 -8.5041 -8.50471 -8.50532 -8.5058 -8.50623 -8.50661 -8.50676 -8.50694 -8.50692 -8.50688 -8.50685 -8.50653 -8.5062 -8.50566 -8.50512 -8.50459 -8.50384 -8.50293 -8.50186 -8.50079 -8.49973 -8.49852 -8.49698 -8.49534 -8.49371 -8.49207 -8.4904 -8.48954 -8.48865 -8.48775 -8.48686 -8.48599 -8.48467 -8.48334 -8.48202 -8.48069 -8.47931 -8.47655 -8.47371 -8.47088 -8.46805 -8.46503 -8.46175 -8.45823 -8.45472 -8.45121 -8.44736 -8.44355 -8.43931 -8.43507 -8.43084 -8.42611 -8.42166 -8.41673 -8.41174 -8.40658 -8.40105 -8.39583 -8.3903 -8.3845 -8.37836 -8.372 -8.36596 -8.35981 -8.35317 -8.34597 -8.33872 -8.33182 -8.32493 -8.31737 -8.3092 -8.30103 -8.29322 -8.28543 -8.27697 -8.26782 -8.25869 -8.24993 -8.24119 -8.23178 -8.22162 -8.21147 -8.20173 -8.19183 -8.18134 -8.17038 -8.15918 -8.1484 -8.13717 -8.12561 -8.11387 -8.10157 -8.08971 -8.07709 -8.06441 -8.05174 -8.03843 -8.02519 -8.01134 -7.9975 -7.98366 -7.96952 -7.95699 -7.94417 -7.93135 -7.91854 -7.90656 -7.90419 -7.90182 -7.89945 -7.89708 -7.89466 -7.87857 -7.86244 -7.84632 -7.83021 -7.81371 -7.79671 -7.77931 -7.76192 -7.74453 -7.72638 -7.70838 -7.68976 -7.67105 -7.65204 -7.63248 -7.61315 -7.59359 -7.57354 -7.55275 -7.53181 -7.5111 -7.49041 -7.46889 -7.44653 -7.42418 -7.40207 -7.37997 -7.35702 -7.33321 -7.30941 -7.28587 -7.26206 -7.23754 -7.21264 -7.18737 -7.16236 -7.13655 -7.11055 -7.08455 -7.0579 -7.03106 -7.00354 -6.97602 -6.94851 -6.92088 -6.91406 -6.9071 -6.90014 -6.89319 -6.88636 -6.86433 -6.84231 -6.82029 -6.79828 -6.77595 -6.74576 -6.7153 -6.68484 -6.6544 -6.62319 -6.59171 -6.55982 -6.52783 -6.49541 -6.46261 -6.42957 -6.39652 -6.36289 -6.32853 -6.29416 -6.25955 -6.22495 -6.18966 -6.15374 -6.11781 -6.08164 -6.04522 -6.00824 -5.97106 -5.93359 -5.89586 -5.85737 -5.81885 -5.78034 -5.74155 -5.71598 -5.69008 -5.66418 -5.63829 -5.61358 -5.59925 -5.58491 -5.57059 -5.55626 -5.54173 -5.50046 -5.45906 -5.41767 -5.3763 -5.33416 -5.29174 -5.24898 -5.20614 -5.16284 -5.11916 -5.0753 -5.03145 -4.98707 -4.94201 -4.89694 -4.85167 -4.80642 -4.76046 -4.71412 -4.66772 -4.62111 -4.57404 -4.52672 -4.47942 -4.4318 -4.39209 -4.35196 -4.31185 -4.27174 -4.2338 -4.22494 -4.21609 -4.20724 -4.19839 -4.18943 -4.13985 -4.09023 -4.04062 -3.99102 -3.9408 -3.89032 -3.83967 -3.78897 -3.73787 -3.68653 -3.63499 -3.58347 -3.53161 -3.47935 -3.42707 -3.37457 -3.32198 -3.26902 -3.216 -3.16288 -3.1095 -3.05574 -3.00198 -2.94824 -2.89446 -2.88422 -2.87393 -2.86364 -2.85335 -2.84317 -2.79901 -2.75485 -2.7107 -2.66656 -2.62215 -2.56714 -2.51213 -2.45714 -2.40201 -2.34669 -2.29115 -2.23564 -2.18009 -2.12441 -2.06871 -2.01276 -1.95681 -1.90075 -1.84474 -1.78877 -1.73253 -1.67625 -1.61998 -1.56373 -1.50745 -1.50641 -1.50537 -1.50433 -1.50329 -1.50225 -1.44681 -1.39138 -1.33596 -1.28055 -1.22508 -1.16837 -1.11182 -1.05536 -0.998956 -0.942525 -0.885871 -0.829231 -0.772753 -0.716548 -0.660309 -0.603825 -0.547473 -0.491212 -0.434962 -0.378932 -0.351314 -0.323827 -0.296342 -0.26886 -0.241881 -0.213235 -0.184592 -0.155952 -0.127314 -0.0987568 -0.0427544 0.0129587 0.0686631 0.124259 0.179736 0.235374 0.291001 0.346203 0.401094 0.456015 0.511109 0.566093 0.620835 0.675484 0.729788 0.770609 0.811158 0.851703 0.892245 0.932006 0.945802 0.959599 0.973395 0.987191 1.00092 1.05483 1.10854 1.16225 1.21589 1.26927 1.32276 1.37621 1.42911 1.48167 1.53426 1.58697 1.63962 1.69189 1.74392 1.79566 1.84225 1.88844 1.93463 1.98082 2.02646 2.03184 2.03723 2.04261 2.04799 2.05334 2.10431 2.15519 2.20607 2.25692 2.30741 2.35795 2.40834 2.45831 2.50788 2.55745 2.60709 2.65673 2.70593 2.75475 2.80339 2.85211 2.90039 2.94866 2.99693 3.04517 3.04657 3.04795 3.04934 3.05072 3.05211 3.09837 3.14462 3.19088 3.23714 3.283 3.33028 3.37727 3.42397 3.4703 3.51658 3.56291 3.60924 3.65521 3.70058 3.74591 3.79132 3.83637 3.88134 3.92632 3.97109 3.98093 3.99068 4.00043 4.01018 4.01995 4.05449 4.08903 4.12357 4.15812 4.19236 4.23637 4.27994 4.32341 4.36663 4.40971 4.45286 4.49601 4.53877 4.58102 4.62326 4.66559 4.70772 4.74969 4.79167 4.83322 4.85503 4.87668 4.89832 4.91997 4.94178 4.96142 4.98107 5.00072 5.02036 5.03986 5.08092 5.12165 5.16238 5.203 5.24341 5.28394 5.32446 5.36452 5.40431 5.44409 5.484 5.52385 5.56351 5.603 5.64222 5.67939 5.71637 5.75336 5.79034 5.82775 5.82983 5.83191 5.834 5.83608 5.83815 5.87704 5.9159 5.95476 5.99362 6.0323 6.07112 6.1098 6.14828 6.18665 6.225 6.26349 6.30198 6.3404 6.37856 6.41667 6.45492 6.49315 6.53138 6.5696 6.60775 6.61586 6.62398 6.6321 6.64022 6.64833 6.67841 6.70848 6.73856 6.76864 6.79874 6.83711 6.87534 6.91354 6.95181 6.9901 7.02851 7.06692 7.10542 7.14387 7.18232 7.22087 7.25958 7.29836 7.33714 7.37589 7.38808 7.40036 7.41264 7.42491 7.43712 7.46394 7.49076 7.51758 7.54441 7.57142 7.61089 7.65036 7.68984 7.72956 7.76939 7.80932 7.84924 7.88947 7.92985 7.97026 8.01073 8.05158 8.09252 8.13347 8.17446 8.18044 8.18649 8.19254 8.19859 8.20462 8.24011 8.27561 8.31111 8.34664 8.3826 8.42471 8.46689 8.50918 8.55202 8.59489 8.63778 8.68075 8.72425 8.76783 8.81156 8.84107 8.87095 8.90089 8.93083 8.96026 8.97473 8.98921 9.00368 9.01819 9.03287 9.07778 9.12284 9.1679 9.2133 9.25902 9.30472 9.35041 9.39658 9.44313 9.4897 9.5345 9.57977 9.62515 9.67052 9.71568 9.71747 9.71927 9.72106 9.72285 9.72467 9.77238 9.82011 9.86783 9.9157 9.964 10.0122 10.0604 10.1089 10.1578 10.2066 10.2553 10.3043 10.3535 10.4027 10.4518 10.4598 10.4678 10.4758 10.4838 10.4919 10.5331 10.5743 10.6155 10.6567 10.6978 10.7468 10.7959 10.8457 10.8971 10.9484 10.9995 11.0485 11.092 11.1347 11.1732 11.1961 11.2282 11.261 11.2937 11.3298 11.3482 11.3667 11.3851 11.4037 11.4281 11.4893 11.5422 11.5949 11.6283 11.6573 11.6861 11.7169 11.7535 11.79 11.8286 11.8367 11.8448 11.8528 11.8608 11.8691 11.9008 11.9325 11.9641 11.9958 12.0274 12.067 12.1065 12.1434 12.1776 12.2117 12.2381 12.2632 12.2875 12.3117 12.34 12.3461 12.3521 12.3582 12.3642 12.3698 12.3982 12.4258 12.4533 12.4793 12.5041 12.5274 12.5507 12.5712 12.5893 12.607 12.6198 12.63 12.6395 12.6489 12.6605 12.6628 12.6651 12.6674 12.6696 12.6713 12.6776 12.6828 12.6878 12.6914 12.692 12.6895 12.6868 12.6801 12.6696 12.659 12.6449 12.6288 12.6091 12.5888 12.5653 12.5442 12.519 12.4937 12.4684 12.4361 12.43 12.424 12.4179 12.4118 12.4048 12.3608 12.3156 12.2702 12.2246 12.1726 12.1158 12.0562 11.9944 11.9273 11.8584 11.7844 11.7104 11.6299 11.543 11.4559 11.3635 11.2701 11.1699 11.0658 10.9598 10.848 10.73 10.6093 10.4885 10.3613 10.2255 10.0839 9.9423 9.80063 9.65695 9.56991 9.47964 9.38936 9.29907 9.18767 9.1161 9.0445 8.97288 8.90124 8.82719 8.64018 8.45219 8.26413 8.076 7.88475 7.67771 7.45376 7.22966 7.00541 6.75486 6.49459 6.25081 6.00919 5.77328 5.55174 5.32254 5.04414 4.72086 4.33359 3.90596 3.46289 3.05098 2.77537 2.64895 2.54547 2.43796 2.33072 1.81603 0.907342 0