# vtk DataFile Version 2.0
track0
ASCII
DATASET POLYDATA
POINTS 10920 double
-0.0205 0.001 1e-05
-0.0202034 0.00100022 1e-05
-0.0199069 0.00100067 1e-05
-0.0196103 0.00100132 1e-05
-0.0193137 0.00100216 1e-05
-0.0190172 0.0010032 1e-05
-0.0187132 0.00100461 1e-05
-0.0184093 0.00100572 1e-05
-0.0181054 0.00100681 1e-05
-0.0178015 0.00100785 1e-05
-0.0174976 0.00100886 1e-05
-0.0172058 0.00101001 1e-05
-0.016914 0.00101082 1e-05
-0.0166222 0.0010116 1e-05
-0.0163305 0.00101236 1e-05
-0.0160387 0.00101308 1e-05
-0.0157586 0.00101395 1e-05
-0.0154784 0.00101463 1e-05
-0.0151983 0.00101536 1e-05
-0.0149182 0.00101612 1e-05
-0.0146381 0.00101692 1e-05
-0.0143692 0.00101784 1e-05
-0.0141002 0.00101869 1e-05
-0.0138313 0.0010196 1e-05
-0.0135624 0.00102056 1e-05
-0.0132934 0.00102157 1e-05
-0.0130397 0.00102262 1e-05
-0.0127859 0.00102366 1e-05
-0.0125322 0.00102474 1e-05
-0.0122784 0.00102585 1e-05
-0.012066 0.00102682 1e-05
-0.0120533 0.00102688 1e-05
-0.0120406 0.00102694 1e-05
-0.0120279 0.001027 1e-05
-0.0120152 0.00102705 1e-05
-0.0120025 0.00102711 1e-05
-0.0117547 0.00102828 1e-05
-0.0115068 0.00102947 1e-05
-0.0112589 0.00103068 1e-05
-0.0110111 0.00103192 1e-05
-0.0107632 0.00103318 1e-05
-0.0105252 0.0010344 1e-05
-0.0102873 0.00103565 1e-05
-0.0100493 0.00103691 1e-05
-0.00981133 0.00103819 1e-05
-0.00957337 0.00103948 1e-05
-0.00934491 0.00104072 1e-05
-0.00911645 0.00104197 1e-05
-0.008888 0.00104324 1e-05
-0.00865954 0.00104451 1e-05
-0.00843108 0.0010458 1e-05
-0.00821175 0.00104701 1e-05
-0.00799242 0.00104825 1e-05
-0.00777309 0.00104949 1e-05
-0.00755376 0.00105074 1e-05
-0.00733443 0.00105198 1e-05
-0.00712387 0.00105316 1e-05
-0.0069133 0.00105436 1e-05
-0.00670273 0.00105556 1e-05
-0.00649217 0.00105675 1e-05
-0.0062816 0.00105795 1e-05
-0.00607944 0.00105908 1e-05
-0.00587729 0.00106022 1e-05
-0.00567514 0.00106136 1e-05
-0.00547298 0.0010625 1e-05
-0.00527083 0.00106363 1e-05
-0.00507675 0.0010647 1e-05
-0.00488267 0.00106578 1e-05
-0.0046886 0.00106686 1e-05
-0.00449452 0.00106793 1e-05
-0.00430044 0.001069 1e-05
-0.00411412 0.00107001 1e-05
-0.0039278 0.00107102 1e-05
-0.00374147 0.00107203 1e-05
-0.00355515 0.00107303 1e-05
-0.00336883 0.00107403 1e-05
-0.00318995 0.00107497 1e-05
-0.00301107 0.00107591 1e-05
-0.00283219 0.00107685 1e-05
-0.00265331 0.00107778 1e-05
-0.00247443 0.0010787 1e-05
-0.0023027 0.00107957 1e-05
-0.00213097 0.00108043 1e-05
-0.00195924 0.00108129 1e-05
-0.0017875 0.00108214 1e-05
-0.00161577 0.00108299 1e-05
-0.0014509 0.00108377 1e-05
-0.00128603 0.00108456 1e-05
-0.00112116 0.00108533 1e-05
-0.000956289 0.00108608 1e-05
-0.000791418 0.00108683 1e-05
-0.000633135 0.00108752 1e-05
-0.000474851 0.0010882 1e-05
-0.000316567 0.00108886 1e-05
-0.000158283 0.00108949 1e-05
0 0.00109011 1e-05
0.000105677 0.0010905 1e-05
0.000211355 0.00109089 1e-05
0.000317032 0.00109126 1e-05
0.00042271 0.00109163 1e-05
0.000528387 0.00109198 1e-05
0.000634886 0.00109231 1e-05
0.000741385 0.00109264 1e-05
0.000847885 0.00109297 1e-05
0.000954384 0.00109328 1e-05
0.00106088 0.00109358 1e-05
0.00116821 0.00109387 1e-05
0.00127554 0.00109416 1e-05
0.00138286 0.00109444 1e-05
0.00149019 0.00109471 1e-05
0.00159752 0.00109497 1e-05
0.00170568 0.00109522 1e-05
0.00181384 0.00109547 1e-05
0.001922 0.0010957 1e-05
0.00203016 0.00109593 1e-05
0.00213833 0.00109615 1e-05
0.00224733 0.00109635 1e-05
0.00235633 0.00109656 1e-05
0.00246533 0.00109676 1e-05
0.00257434 0.00109695 1e-05
0.00268334 0.00109713 1e-05
0.00279319 0.0010973 1e-05
0.00290304 0.00109747 1e-05
0.00301289 0.00109764 1e-05
0.00312274 0.0010978 1e-05
0.00323259 0.00109795 1e-05
0.00334329 0.00109809 1e-05
0.003454 0.00109824 1e-05
0.0035647 0.00109838 1e-05
0.0036754 0.00109852 1e-05
0.00378611 0.00109865 1e-05
0.00389767 0.00109877 1e-05
0.00400924 0.0010989 1e-05
0.0041208 0.00109902 1e-05
0.00423237 0.00109914 1e-05
0.00434393 0.00109925 1e-05
0.00445636 0.00109935 1e-05
0.00456879 0.00109945 1e-05
0.00468123 0.00109955 1e-05
0.00479366 0.00109965 1e-05
0.00490609 0.00109974 1e-05
0.0050194 0.00109982 1e-05
0.0051327 0.0010999 1e-05
0.00524601 0.00109998 1e-05
0.00535931 0.00110006 1e-05
0.00547262 0.00110013 1e-05
0.00558681 0.00110019 1e-05
0.005701 0.00110026 1e-05
0.00581518 0.00110032 1e-05
0.00592937 0.00110037 1e-05
0.00604356 0.00110042 1e-05
0.00612268 0.00110045 1e-05
0.00620181 0.00110048 1e-05
0.00628093 0.00110051 1e-05
0.00636006 0.00110054 1e-05
0.00643764 0.00110056 1e-05
0.0064739 0.00110057 1e-05
0.00651016 0.00110058 1e-05
0.00654642 0.00110059 1e-05
0.00658267 0.0011006 1e-05
0.00661893 0.00110061 1e-05
0.0067349 0.00110064 1e-05
0.00685087 0.00110066 1e-05
0.00696684 0.00110068 1e-05
0.00708281 0.00110069 1e-05
0.00719878 0.0011007 1e-05
0.00731565 0.0011007 1e-05
0.00743252 0.0011007 1e-05
0.00754939 0.0011007 1e-05
0.00766626 0.00110069 1e-05
0.00778313 0.00110068 1e-05
0.00790091 0.00110065 1e-05
0.00801869 0.00110063 1e-05
0.00813647 0.0011006 1e-05
0.00825425 0.00110057 1e-05
0.00837203 0.00110054 1e-05
0.00849073 0.00110048 1e-05
0.00860942 0.00110043 1e-05
0.00872812 0.00110038 1e-05
0.00884682 0.00110033 1e-05
0.00896551 0.00110026 1e-05
0.00908513 0.00110018 1e-05
0.00920475 0.00110011 1e-05
0.00932437 0.00110003 1e-05
0.00944398 0.00109994 1e-05
0.0095636 0.00109986 1e-05
0.00968415 0.00109974 1e-05
0.0098047 0.00109964 1e-05
0.00992525 0.00109953 1e-05
0.0100458 0.00109942 1e-05
0.0101663 0.0010993 1e-05
0.0102878 0.00109915 1e-05
0.0104093 0.00109902 1e-05
0.0105308 0.00109888 1e-05
0.0106523 0.00109874 1e-05
0.0107738 0.00109859 1e-05
0.0108962 0.0010984 1e-05
0.0110186 0.00109824 1e-05
0.0111411 0.00109807 1e-05
0.0112635 0.0010979 1e-05
0.0113859 0.00109771 1e-05
0.0115093 0.00109749 1e-05
0.0116327 0.00109729 1e-05
0.0117561 0.00109709 1e-05
0.0118795 0.00109688 1e-05
0.0120028 0.00109667 1e-05
0.0121272 0.00109641 1e-05
0.0122515 0.00109617 1e-05
0.0123759 0.00109593 1e-05
0.0125002 0.00109569 1e-05
0.0126245 0.00109543 1e-05
0.0127498 0.00109513 1e-05
0.0128752 0.00109486 1e-05
0.0130005 0.00109459 1e-05
0.0131258 0.0010943 1e-05
0.0132511 0.00109401 1e-05
0.0133774 0.00109367 1e-05
0.0135036 0.00109336 1e-05
0.0136299 0.00109304 1e-05
0.0137562 0.00109271 1e-05
0.0138825 0.00109238 1e-05
0.0140098 0.001092 1e-05
0.014137 0.00109164 1e-05
0.0142643 0.00109128 1e-05
0.0143915 0.00109091 1e-05
0.0145188 0.00109053 1e-05
0.0146471 0.00109011 1e-05
0.0147753 0.0010897 1e-05
0.0149036 0.0010893 1e-05
0.0150318 0.00108889 1e-05
0.0151601 0.00108846 1e-05
0.0152893 0.00108799 1e-05
0.0154186 0.00108754 1e-05
0.0155478 0.00108709 1e-05
0.0156771 0.00108663 1e-05
0.0158063 0.00108615 1e-05
0.0159366 0.00108564 1e-05
0.0160668 0.00108514 1e-05
0.0161971 0.00108464 1e-05
0.0163274 0.00108414 1e-05
0.0164576 0.00108361 1e-05
0.0165889 0.00108305 1e-05
0.0167201 0.0010825 1e-05
0.0168514 0.00108195 1e-05
0.0169827 0.00108139 1e-05
0.0171139 0.00108082 1e-05
0.0172462 0.00108021 1e-05
0.0173785 0.00107961 1e-05
0.0175108 0.00107901 1e-05
0.0176431 0.0010784 1e-05
0.0177754 0.00107777 1e-05
0.0179087 0.00107712 1e-05
0.018042 0.00107647 1e-05
0.0181753 0.00107581 1e-05
0.0183087 0.00107515 1e-05
0.018442 0.00107447 1e-05
0.0185763 0.00107377 1e-05
0.0187107 0.00107306 1e-05
0.018845 0.00107235 1e-05
0.0189794 0.00107164 1e-05
0.0191137 0.0010709 1e-05
0.0192491 0.00107015 1e-05
0.0193845 0.00106939 1e-05
0.0195199 0.00106862 1e-05
0.0196553 0.00106785 1e-05
0.0197907 0.00106706 1e-05
0.0199272 0.00106626 1e-05
0.0200636 0.00106544 1e-05
0.0202001 0.00106462 1e-05
0.0203365 0.00106378 1e-05
0.020473 0.00106294 1e-05
0.0206105 0.00106208 1e-05
0.020748 0.00106121 1e-05
0.0208855 0.00106033 1e-05
0.021023 0.00105944 1e-05
0.0211606 0.00105854 1e-05
0.0212991 0.00105763 1e-05
0.0214377 0.0010567 1e-05
0.0215763 0.00105576 1e-05
0.0217149 0.00105481 1e-05
0.0218535 0.00105385 1e-05
0.0219931 0.00105288 1e-05
0.0221328 0.0010519 1e-05
0.0222724 0.0010509 1e-05
0.0224121 0.00104989 1e-05
0.0225517 0.00104887 1e-05
0.0226925 0.00104785 1e-05
0.0228332 0.00104681 1e-05
0.022974 0.00104575 1e-05
0.0231147 0.00104467 1e-05
0.0232555 0.0010436 1e-05
0.0233973 0.00104253 1e-05
0.0235391 0.00104143 1e-05
0.023681 0.0010403 1e-05
0.0238228 0.00103917 1e-05
0.0239647 0.00103804 1e-05
0.0241076 0.00103691 1e-05
0.0242505 0.00103575 1e-05
0.0243935 0.00103456 1e-05
0.0245364 0.00103337 1e-05
0.0246794 0.00103218 1e-05
0.0248234 0.00103099 1e-05
0.0249675 0.00102977 1e-05
0.0251115 0.00102853 1e-05
0.0252556 0.00102727 1e-05
0.0253996 0.00102602 1e-05
0.0255448 0.00102478 1e-05
0.02569 0.0010235 1e-05
0.0258351 0.00102219 1e-05
0.0259803 0.00102088 1e-05
0.0261255 0.00101957 1e-05
0.0262718 0.00101826 1e-05
0.0264181 0.00101692 1e-05
0.0265644 0.00101556 1e-05
0.0267107 0.00101419 1e-05
0.026857 0.00101282 1e-05
0.0270044 0.00101145 1e-05
0.0271519 0.00101005 1e-05
0.0272993 0.00100862 1e-05
0.0274468 0.00100719 1e-05
0.0275942 0.00100576 1e-05
0.0277428 0.00100433 1e-05
0.0278914 0.00100286 1e-05
0.0280399 0.00100138 1e-05
0.0281885 0.000999888 1e-05
0.0283371 0.000998394 1e-05
0.0284869 0.0009969 1e-05
0.0286366 0.000995371 1e-05
0.0287863 0.000993827 1e-05
0.0289361 0.000992275 1e-05
0.0290858 0.000990716 1e-05
0.0292367 0.000989159 1e-05
0.0293876 0.000987564 1e-05
0.0295385 0.000985959 1e-05
0.0296894 0.000984344 1e-05
0.0298403 0.000982721 1e-05
0.0299924 0.000981097 1e-05
0.0301445 0.000979438 1e-05
0.0302966 0.000977769 1e-05
0.0304486 0.000976092 1e-05
0.0306007 0.000974404 1e-05
0.030754 0.000972713 1e-05
0.0309072 0.00097099 1e-05
0.0310605 0.000969257 1e-05
0.0312138 0.000967515 1e-05
0.031367 0.000965762 1e-05
0.0315215 0.000964002 1e-05
0.0316759 0.000962213 1e-05
0.0318304 0.000960415 1e-05
0.0319848 0.000958606 1e-05
0.0321393 0.000956787 1e-05
0.0322949 0.000954955 1e-05
0.0324506 0.000953099 1e-05
0.0326062 0.000951233 1e-05
0.0327619 0.000949356 1e-05
0.0329175 0.000947468 1e-05
0.0330744 0.000945563 1e-05
0.0332313 0.000943637 1e-05
0.0333881 0.000941701 1e-05
0.033545 0.000939753 1e-05
[...]
POINT_DATA 10920
 FIELD attributes 1
U 3 10920 float
10.0004 	0.00757606 	0 10.0023 	0.0151319 	0 10.0042 	0.0217949 	0 10.0061 	0.0284127 	0 10.008 	0.0349856 	0 10.0143 	0.046441 	0 10.016 	0.0368184 	0 10.0207 	0.0356227 	0 10.0255 	0.0344301 	0 10.0302 	0.0332404 	0 10.0386 	0.0396407 	0 10.0406 	0.0279008 	0 10.0458 	0.0269456 	0 10.051 	0.0259877 	0 10.0562 	0.0250269 	0 10.0638 	0.031064 	0 10.0662 	0.0246543 	0 10.0707 	0.0260068 	0 10.0752 	0.0273652 	0 10.0797 	0.0287294 	0 10.0854 	0.0346004 	0 10.0883 	0.0320808 	0 10.0922 	0.0340237 	0 10.0961 	0.0359745 	0 10.1 	0.0379331 	0 10.1041 	0.0417988 	0 10.1072 	0.0414768 	0 10.1105 	0.0429577 	0 10.1137 	0.0444436 	0 10.1169 	0.0459345 	0 10.1196 	0.0471866 	0 10.1198 	0.0472615 	0 10.1199 	0.0473365 	0 10.1201 	0.0474115 	0 10.1203 	0.0474865 	0 10.1204 	0.0475353 	0 10.123 	0.0485557 	0 10.1255 	0.0495594 	0 10.128 	0.0505657 	0 10.1306 	0.0515748 	0 10.1333 	0.0520952 	0 10.1349 	0.0530916 	0 10.1367 	0.0537374 	0 10.1384 	0.0543844 	0 10.1402 	0.0550328 	0 10.1424 	0.054862 	0 10.1433 	0.0558267 	0 10.1445 	0.0562079 	0 10.1456 	0.0565896 	0 10.1468 	0.0569719 	0 10.1486 	0.0563411 	0 10.149 	0.0572423 	0 10.1497 	0.0574189 	0 10.1504 	0.0575957 	0 10.1511 	0.0577727 	0 10.1524 	0.0568517 	0 10.1527 	0.0576672 	0 10.153 	0.0576892 	0 10.1533 	0.0577112 	0 10.1536 	0.0577332 	0 10.1543 	0.0566491 	0 10.1548 	0.0573677 	0 10.1548 	0.0572724 	0 10.1548 	0.0571771 	0 10.1548 	0.0570818 	0 10.1548 	0.0559163 	0 10.1557 	0.0565293 	0 10.1555 	0.0563392 	0 10.1552 	0.0561491 	0 10.155 	0.0559588 	0 10.1541 	0.0547575 	0 10.1558 	0.0552562 	0 10.1553 	0.0549752 	0 10.1549 	0.054694 	0 10.1545 	0.0544128 	0 10.1527 	0.0531828 	0 10.1552 	0.0535477 	0 10.1547 	0.0531659 	0 10.1541 	0.052784 	0 10.1536 	0.052402 	0 10.1507 	0.0511335 	0 10.1544 	0.0513348 	0 10.1538 	0.0508086 	0 10.1532 	0.0502822 	0 10.1526 	0.0497558 	0 10.1486 	0.0483819 	0 10.1535 	0.0483042 	0 10.1528 	0.0474738 	0 10.1521 	0.0466432 	0 10.1514 	0.0458124 	0 10.146 	0.0441645 	0 10.1521 	0.04357 	1.61187e-21 10.1512 	0.0422362 	8.65662e-21 10.1504 	0.0409022 	1.57033e-20 10.1496 	0.0395679 	2.27518e-20 10.1426 	0.0377023 	2.00947e-20 10.1493 	0.0371786 	1.25852e-19 10.1482 	0.0359534 	1.16172e-19 10.147 	0.034728 	1.06471e-19 10.1459 	0.0335025 	9.67511e-20 10.1383 	0.0318795 	-2.0241e-20 10.1446 	0.0316682 	-5.40824e-20 10.1432 	0.0307359 	-6.03372e-20 10.1418 	0.0298034 	-6.65852e-20 10.1405 	0.0288707 	-7.28264e-20 10.1327 	0.0274201 	-3.12908e-20 10.1387 	0.02742 	-2.71005e-20 10.1373 	0.0264771 	-1.90464e-20 10.1358 	0.0255339 	-1.09933e-20 10.1344 	0.0245904 	-2.94126e-21 10.1268 	0.0229915 	8.64722e-21 10.1325 	0.0232061 	-9.75306e-21 10.1311 	0.0222826 	-3.52329e-20 10.1296 	0.0213587 	-6.07158e-20 10.1281 	0.0204345 	-8.62019e-20 10.1208 	0.0186728 	-1.20734e-19 10.126 	0.019159 	-1.61183e-19 10.1244 	0.0184333 	-1.44184e-19 10.1227 	0.0177073 	-1.27176e-19 10.1211 	0.0169809 	-1.10159e-19 10.114 	0.0152586 	-4.23205e-20 10.1186 	0.0159123 	3.33935e-20 10.1168 	0.0153922 	5.15578e-20 10.115 	0.0148718 	6.97133e-20 10.1132 	0.0143511 	8.786e-20 10.1065 	0.0128049 	5.03643e-20 10.1103 	0.0134228 	-4.01518e-20 10.1083 	0.0130078 	-4.80125e-20 10.1064 	0.0125925 	-5.58621e-20 10.1045 	0.012177 	-6.37003e-20 10.0982 	0.0108549 	-7.1718e-22 10.1011 	0.0112959 	5.65363e-20 10.099 	0.0109132 	4.38103e-20 10.0969 	0.0105302 	3.10739e-20 10.0948 	0.010147 	1.83271e-20 10.089 	0.0090653 	-4.15228e-20 10.091 	0.00929271 	-1.0048e-19 10.0887 	0.00892521 	-1.29718e-19 10.0863 	0.00855754 	-1.58952e-19 10.084 	0.00818971 	-1.88182e-19 10.0788 	0.0073529 	-1.89086e-19 10.0796 	0.00738276 	-1.97679e-19 10.077 	0.00702797 	-1.81096e-19 10.0744 	0.00667304 	-1.6451e-19 10.0718 	0.00631796 	-1.47921e-19 10.0673 	0.00570235 	-1.1711e-19 10.0667 	0.00555893 	-9.59909e-20 10.0638 	0.00520547 	-7.16649e-20 10.0609 	0.00485187 	-4.73401e-20 10.058 	0.00449815 	-2.30164e-20 10.0543 	0.00405336 	7.13768e-22 10.0531 	0.00387914 	0 10.0509 	0.00363075 	0 10.0487 	0.0033823 	0 10.0465 	0.0031338 	0 10.0443 	0.00289008 	0 10.0433 	0.00277556 	0 10.0423 	0.00266103 	0 10.0413 	0.00254648 	0 10.0402 	0.00243192 	0 10.0365 	0.00224715 	-1.34348e-22 10.0356 	0.00194818 	-2.31394e-20 10.032 	0.00157334 	-4.69039e-20 10.0284 	0.00119839 	-7.06671e-20 10.0248 	0.00082332 	-9.4429e-20 10.0093 	8.87953e-05 	-1.18043e-19 10.0168 	7.0223e-05 	-1.25533e-19 10.0128 	-0.000317652 	-1.281e-19 10.0089 	-0.000705644 	-1.30669e-19 10.0049 	-0.00109375 	-1.33238e-19 9.97921 	-0.00219931 	-1.29988e-19 9.99565 	-0.00188786 	-1.18939e-19 9.99128 	-0.00228774 	-8.14934e-20 9.98689 	-0.00268774 	-4.40549e-20 9.98251 	-0.00308787 	-6.62398e-21 9.94633 	-0.00459505 	5.89817e-20 9.97193 	-0.00393801 	5.97959e-20 9.96712 	-0.00434909 	6.14218e-20 9.9623 	-0.0047603 	6.30458e-20 9.95748 	-0.00517166 	6.46682e-20 9.9106 	-0.00708035 	7.1179e-20 9.94542 	-0.00608852 	5.5547e-20 9.94016 	-0.00650955 	3.99131e-20 9.9349 	-0.00693074 	2.42783e-20 9.92963 	-0.00735209 	8.64249e-21 9.87209 	-0.00963632 	-2.2655e-21 9.91599 	-0.0083407 	-7.96287e-21 9.91027 	-0.00877136 	-2.27769e-20 9.90454 	-0.0092022 	-3.759e-20 9.89881 	-0.00963323 	-5.24021e-20 9.83091 	-0.0122498 	-6.72435e-20 9.88353 	-0.010695 	-6.31136e-20 9.87734 	-0.0111356 	-7.28984e-20 9.87114 	-0.0115764 	-8.26805e-20 9.86494 	-0.0120173 	-9.24598e-20 9.78718 	-0.0149118 	-1.21846e-19 9.84795 	-0.0131508 	-2.22205e-19 9.84129 	-0.0136009 	-2.10105e-19 9.83462 	-0.0140512 	-1.98016e-19 9.82795 	-0.0145018 	-1.8594e-19 9.74106 	-0.0176105 	-5.55965e-20 9.80925 	-0.0157009 	-3.36046e-20 9.80213 	-0.0161605 	-2.30741e-20 9.79499 	-0.0166204 	-1.25429e-20 9.78786 	-0.0170806 	-2.01095e-21 9.69274 	-0.0203361 	0 9.76745 	-0.0183388 	0 9.75987 	-0.0188087 	0 9.75228 	-0.019279 	0 9.74468 	-0.0197496 	0 9.64241 	-0.0230837 	0 9.72263 	-0.0210602 	6.10185e-22 9.71461 	-0.021541 	1.04745e-20 9.70658 	-0.0220221 	2.03381e-20 9.69854 	-0.0225036 	3.02008e-20 9.59029 	-0.0258456 	5.58199e-20 9.67142 	-0.0239515 	2.28711e-19 9.66646 	-0.0243498 	2.38953e-19 9.658 	-0.0248415 	2.42609e-19 9.64024 	-0.0255815 	2.29028e-19 9.53655 	-0.0286125 	5.60279e-20 9.61241 	-0.0270179 	3.06453e-20 9.61558 	-0.0272229 	1.97161e-20 9.6067 	-0.0277262 	1.11782e-20 9.58009 	-0.028667 	7.91787e-21 9.48141 	-0.0313843 	2.60996e-20 9.55173 	-0.0300859 	1.38952e-19 9.56216 	-0.030153 	1.67705e-19 9.5529 	-0.0306692 	1.68841e-19 9.51846 	-0.0317517 	1.31924e-19 9.42509 	-0.0341595 	5.95534e-21 9.48976 	-0.0331505 	-1.28166e-19 9.5065 	-0.0331337 	-1.84651e-19 9.49688 	-0.0336631 	-1.98447e-19 9.4557 	-0.0348266 	-1.7165e-19 9.36781 	-0.0369289 	-8.47917e-20 9.42676 	-0.0362079 	-2.36013e-19 9.44884 	-0.036163 	-3.07576e-19 9.43887 	-0.0367058 	-3.09992e-19 9.39208 	-0.0378884 	-2.27618e-19 9.30976 	-0.0396885 	-6.35242e-20 9.36304 	-0.0392498 	-3.44334e-20 9.38945 	-0.039231 	-1.35136e-20 9.37917 	-0.0397861 	-3.74075e-21 9.32787 	-0.0409273 	0 9.25112 	-0.0424334 	0 9.29886 	-0.0422553 	0 9.32864 	-0.0423067 	0 9.31807 	-0.0428737 	0 9.26337 	-0.0439253 	3.18757e-21 9.19209 	-0.0451599 	7.5709e-21 9.2345 	-0.0452273 	3.38578e-21 9.26674 	-0.0453926 	0 9.2559 	-0.0459736 	0 9.19882 	-0.0468898 	3.68402e-21 9.13287 	-0.0478714 	8.073e-21 9.17019 	-0.0481783 	3.8873e-21 9.20406 	-0.0485059 	6.33216e-22 9.19298 	-0.0491009 	9.5175e-21 9.13446 	-0.0498303 	3.29472e-20 9.0736 	-0.0505674 	5.70817e-20 9.10614 	-0.0511047 	2.19779e-19 9.13867 	-0.0516424 	3.82477e-19 9.12646 	-0.0522387 	3.83139e-19 9.07047 	-0.0527404 	2.20418e-19 9.01444 	-0.0532432 	5.7698e-20 9.04253 	-0.0539979 	3.38768e-20 9.0706 	-0.0547534 	1.00563e-20 9.05851 	-0.0553317 	7.9276e-22 9.00704 	-0.0556123 	4.98939e-21 8.95554 	-0.0558936 	9.18646e-21 8.97952 	-0.0568498 	5.19781e-21 9.00347 	-0.0578071 	1.20973e-21 8.99158 	-0.0583634 	7.69921e-22 8.94431 	-0.058439 	-4.65461e-21 8.89702 	-0.058515 	-1.00804e-20 8.91725 	-0.0596552 	-6.60265e-20 8.93744 	-0.0607967 	-1.21976e-19 8.92582 	-0.0613284 	-1.24215e-19 8.88241 	-0.061217 	-7.30617e-20 8.83899 	-0.0611058 	-2.19085e-20 8.85582 	-0.0624109 	1.06955e-19 8.8726 	-0.0637175 	2.35813e-19 8.86132 	-0.0642231 	2.47732e-19 8.82145 	-0.0639446 	1.40515e-19 8.78157 	-0.063666 	3.32962e-20 8.79533 	-0.0651169 	1.87721e-20 8.80904 	-0.0665693 	4.24415e-21 8.79817 	-0.0670479 	-1.39144e-21 8.7615 	-0.0666223 	4.26414e-21 8.72484 	-0.0661964 	9.92034e-21 8.73586 	-0.0677728 	3.1009e-21 8.74682 	-0.0693509 	-3.7244e-21 8.73641 	-0.0698024 	-2.50117e-20 8.70265 	-0.0692508 	-8.94174e-20 8.66889 	-0.0686988 	-1.53825e-19 8.67747 	-0.070382 	-3.23367e-19 8.68598 	-0.072067 	-4.92902e-19 8.67608 	-0.0724916 	-4.71493e-19 8.64492 	-0.0718337 	-2.76915e-19 8.61378 	-0.0711754 	-8.23378e-20 8.6202 	-0.0729458 	7.71854e-20 8.62519 	-0.074603 	2.23257e-19 8.61501 	-0.0749846 	2.20039e-19 8.58838 	-0.0743733 	1.16943e-19 8.55958 	-0.0736296 	5.71146e-22 8.5641 	-0.075471 	-1.14859e-19 8.56539 	-0.0769939 	-2.07639e-19 8.5554 	-0.0773756 	-2.1963e-19 8.53305 	-0.0768765 	-1.48918e-19 8.50635 	-0.0760653 	-4.89404e-20 8.50919 	-0.0779597 	-3.42377e-20 8.50748 	-0.0793152 	-1.97717e-20 8.49767 	-0.0796986 	-5.72702e-21 8.47895 	-0.0793466 	1.55072e-20 8.45411 	-0.0784877 	4.16945e-20 8.45548 	-0.0804228 	1.39505e-20 8.45136 	-0.0815883 	-3.73158e-21 8.44172 	-0.081975 	-1.12362e-20 8.42607 	-0.0817949 	-7.0531e-21 8.4029 	-0.080903 	1.18027e-20 8.40299 	-0.0828633 	-9.11462e-21 8.39696 	-0.0838202 	-2.2008e-20 8.38748 	-0.0842107 	-3.03725e-20 8.37442 	-0.0842216 	-4.44073e-20 8.35274 	-0.0833124 	-7.21685e-20 8.3517 	-0.0852845 	6.70049e-20 8.34419 	-0.0860223 	9.95746e-20 8.33486 	-0.0864187 	1.02626e-19 8.32399 	-0.0866342 	8.86975e-20 8.30364 	-0.0857246 	-3.05318e-20 8.30163 	-0.0877068 	8.68723e-20 8.29297 	-0.0882232 	9.91696e-20 8.28379 	-0.0886279 	1.03426e-19 8.27459 	-0.089033 	1.07672e-19 8.2556 	-0.0881509 	1.16272e-20 8.25228 	-0.0900185 	-1.20695e-21 8.24326 	-0.0904319 	-8.26804e-22 8.23422 	-0.0908456 	-4.46693e-22 8.22515 	-0.0912596 	-6.66211e-23 8.20863 	-0.0905948 	2.08404e-20 8.20388 	-0.0922256 	0 8.19498 	-0.0926483 	0 8.18607 	-0.0930714 	0 8.17713 	-0.0934948 	0 8.16273 	-0.0930576 	1.69175e-20 8.15684 	-0.0944452 	0 8.14806 	-0.09488 	0 8.13927 	-0.0953152 	0 8.13046 	-0.0957507 	0 8.11787 	-0.0955506 	0 8.11109 	-0.0967014 	0 8.10243 	-0.0971518 	0 8.09376 	-0.0976026 	0 8.08506 	-0.0980537 	0 8.07404 	-0.0980902 	-8.28766e-21 8.06657 	-0.0990137 	0 8.05802 	-0.0994819 	0 8.04945 	-0.0999505 	0 8.04086 	-0.100419 	0 8.0312 	-0.100687 	-8.28769e-21 8.02328 	-0.101392 	0 8.01489 	-0.101877 	0 8.00648 	-0.102361 	0 7.99805 	-0.102847 	0 7.98994 	-0.103312 	0 7.98981 	-0.10332 	0 7.98967 	-0.103327 	0 7.98954 	-0.103335 	0 7.98941 	-0.103342 	0 7.98929 	-0.103347 	0 7.98072 	-0.103861 	-1.22444e-20 7.97213 	-0.104374 	-2.45206e-20 7.96352 	-0.104886 	-3.67952e-20 7.95488 	-0.105399 	-4.90681e-20 7.94731 	-0.105711 	-6.1349e-20 7.93839 	-0.106427 	-5.82891e-20 7.92989 	-0.106963 	-5.74763e-20 7.92136 	-0.107498 	-5.66599e-20 7.91281 	-0.108034 	-5.584e-20 7.90635 	-0.10818 	-5.95411e-20 7.89709 	-0.109092 	-4.62852e-20 7.88867 	-0.109651 	-3.30071e-20 7.88021 	-0.110211 	-1.97271e-20 7.87173 	-0.110772 	-6.44535e-21 7.86635 	-0.110762 	0 7.85675 	-0.111863 	-2.72532e-21 7.84839 	-0.112449 	-8.8027e-21 7.84 	-0.113035 	-1.48791e-20 7.83159 	-0.113621 	-2.09546e-20 7.82725 	-0.113464 	-2.69706e-20 7.81731 	-0.11475 	-6.59653e-20 7.809 	-0.115363 	-9.09194e-20 7.80067 	-0.115976 	-1.15876e-19 7.79232 	-0.11659 	-1.40834e-19 7.78897 	-0.116294 	-1.26086e-19 7.77869 	-0.11776 	-9.55511e-20 7.77044 	-0.118401 	-8.14878e-20 7.76216 	-0.119043 	-6.74164e-20 7.75412 	-0.119637 	-5.54679e-20 7.75147 	-0.119259 	-8.61626e-20 7.74113 	-0.12079 	-1.03879e-19 7.73265 	-0.121572 	-8.58477e-20 7.7244 	-0.122244 	-6.25719e-20 7.71741 	-0.122688 	-3.49885e-20 7.71467 	-0.122366 	7.01151e-21 7.70443 	-0.123905 	1.25474e-20 7.69556 	-0.124882 	1.00773e-20 7.68735 	-0.125586 	3.71701e-21 7.68137 	-0.125887 	0 7.67854 	-0.125622 	0 7.66838 	-0.127172 	0 7.65913 	-0.128339 	0 7.65094 	-0.129075 	0 7.64592 	-0.129242 	0 7.64299 	-0.129034 	0 7.63291 	-0.130596 	0 7.62329 	-0.13195 	-5.84945e-21 7.61511 	-0.13272 	-2.80475e-20 7.61102 	-0.132758 	-5.03238e-20 7.60798 	-0.132609 	-7.26215e-20 7.59796 	-0.134185 	-4.85418e-20 7.58798 	-0.135721 	-2.41784e-20 7.5798 	-0.136526 	5.14866e-21 7.5766 	-0.136443 	1.05272e-20 7.57344 	-0.136352 	1.56512e-20 7.56348 	-0.137944 	5.64201e-20 7.55345 	-0.139537 	9.71867e-20 7.54588 	-0.140336 	1.15995e-19 7.5426 	-0.140303 	9.73232e-20 7.53933 	-0.14027 	7.86502e-20 7.5294 	-0.14188 	4.8558e-20 7.51942 	-0.143491 	1.84542e-20 7.51238 	-0.144319 	4.54657e-21 7.50898 	-0.144344 	1.62488e-20 7.50556 	-0.14437 	2.79518e-20 7.49568 	-0.146001 	1.07173e-19 7.48573 	-0.147633 	1.86399e-19 7.4792 	-0.148491 	1.87238e-19 7.47565 	-0.148574 	1.08813e-19 7.4721 	-0.148657 	3.03857e-20 7.46223 	-0.150311 	1.96887e-20 7.45231 	-0.151965 	8.99667e-21 7.44628 	-0.152855 	9.13718e-21 7.44258 	-0.152996 	2.05341e-20 7.43887 	-0.153138 	3.1932e-20 7.42902 	-0.154815 	1.09175e-19 7.41918 	-0.156478 	1.84982e-19 7.41366 	-0.157369 	1.82237e-19 7.40969 	-0.157618 	1.10892e-19 7.40582 	-0.157819 	3.44785e-20 7.39597 	-0.159522 	2.41177e-20 7.38708 	-0.161043 	1.37281e-20 7.38145 	-0.161977 	3.23365e-21 7.37693 	-0.162446 	0 7.3729 	-0.162708 	0 7.36304 	-0.164437 	0 7.35505 	-0.165822 	0 7.34932 	-0.1668 	0 7.34426 	-0.167486 	0 7.34005 	-0.167809 	0 7.33016 	-0.169566 	0 7.32305 	-0.170819 	0 7.3172 	-0.171842 	0 7.3116 	-0.172742 	3.85033e-21 7.30723 	-0.173127 	2.36598e-20 7.2973 	-0.174912 	1.78639e-21 7.29103 	-0.17604 	9.84006e-21 7.28504 	-0.17711 	2.05578e-20 7.27902 	-0.17818 	3.12785e-20 7.27436 	-0.178668 	4.69409e-20 7.265 	-0.180375 	1.38521e-19 7.25892 	-0.181492 	1.44123e-19 7.2528 	-0.182609 	1.49699e-19 7.24664 	-0.183726 	1.55246e-19 7.24141 	-0.184438 	6.9337e-20 7.23291 	-0.186014 	1.44485e-19 7.22669 	-0.187179 	1.29633e-19 7.22042 	-0.188344 	1.14752e-19 7.21411 	-0.189509 	9.98434e-20 7.20832 	-0.190441 	4.87111e-20 7.20065 	-0.191892 	4.40228e-20 7.19428 	-0.193106 	4.46301e-20 7.18786 	-0.19432 	4.52441e-20 7.18139 	-0.195535 	4.58647e-20 7.17504 	-0.196683 	5.18815e-20 7.17208 	-0.197252 	5.36908e-20 7.1695 	-0.197754 	5.2421e-20 7.1669 	-0.198255 	5.1148e-20 7.1643 	-0.198757 	4.98717e-20 7.16176 	-0.199246 	4.86263e-20 7.15766 	-0.200009 	4.79564e-20 7.15354 	-0.200772 	4.72839e-20 7.1494 	-0.201535 	4.66089e-20 7.14525 	-0.202299 	4.59313e-20 7.14191 	-0.202972 	4.85764e-20 7.13457 	-0.204372 	4.52542e-20 7.12766 	-0.205684 	3.70813e-20 7.1207 	-0.206995 	2.89191e-20 7.11369 	-0.208307 	2.07677e-20 7.10885 	-0.209383 	1.7624e-21 7.10052 	-0.210978 	-3.2446e-22 7.09343 	-0.21234 	-2.25679e-22 7.08628 	-0.213702 	-1.26862e-22 7.07908 	-0.215064 	-2.80086e-23 7.07544 	-0.216047 	0 7.0661 	-0.217835 	-3.30639e-21 7.05881 	-0.219248 	-2.04018e-20 7.05146 	-0.220661 	-3.74896e-20 7.04408 	-0.222072 	-5.45537e-20 7.04162 	-0.222966 	-6.69481e-20 7.03159 	-0.224886 	-5.18651e-20 7.02374 	-0.226411 	-3.3407e-20 7.01619 	-0.227874 	-1.442e-20 7.01005 	-0.229187 	1.62772e-21 7.00734 	-0.230142 	1.07015e-20 6.99712 	-0.232104 	2.81056e-21 6.98819 	-0.23383 	8.22652e-21 6.98041 	-0.235344 	2.55333e-20 6.97551 	-0.23656 	4.81719e-20 6.97255 	-0.237575 	7.44085e-20 6.96212 	-0.23958 	4.70432e-20 6.95208 	-0.241505 	2.11536e-20 6.94406 	-0.24307 	2.06884e-21 6.94041 	-0.244192 	-3.49916e-21 6.93718 	-0.245266 	-7.64976e-21 6.92654 	-0.247313 	-7.17792e-20 6.91582 	-0.24936 	-1.3591e-19 6.90816 	-0.250948 	-1.39294e-19 6.90469 	-0.252081 	-8.88762e-20 6.90119 	-0.253215 	-3.84586e-20 6.89031 	-0.255304 	-8.97695e-20 6.87936 	-0.257393 	-1.41091e-19 6.87206 	-0.259036 	-1.39966e-19 6.8683 	-0.260227 	-8.62137e-20 6.8645 	-0.261418 	-3.24598e-20 6.85338 	-0.263549 	-8.65518e-20 6.84219 	-0.265681 	-1.40652e-19 6.83523 	-0.26738 	-1.34051e-19 6.83117 	-0.268627 	-7.30151e-20 6.82707 	-0.269874 	-1.19735e-20 6.8157 	-0.272048 	-8.52302e-21 6.80528 	-0.274121 	-5.00859e-21 6.79846 	-0.275838 	-1.25842e-21 6.79326 	-0.277279 	0 6.78884 	-0.278582 	0 6.7772 	-0.280797 	0 6.76815 	-0.282755 	0 6.76104 	-0.284519 	0 6.75449 	-0.28618 	0 6.74975 	-0.287536 	0 6.73783 	-0.289792 	0 6.73015 	-0.291634 	-3.68508e-21 6.72273 	-0.293445 	-7.65298e-21 6.71525 	-0.295255 	-1.16229e-20 6.70974 	-0.296733 	-3.78764e-21 6.6989 	-0.298897 	-5.37858e-20 6.69123 	-0.300753 	-4.96272e-20 6.6835 	-0.302609 	-4.54378e-20 6.6757 	-0.304463 	-4.12176e-20 6.66876 	-0.306165 	-1.16706e-20 6.66052 	-0.307924 	-1.03038e-20 6.65372 	-0.309541 	-9.1667e-22 6.64687 	-0.311157 	8.4718e-21 6.63996 	-0.312774 	1.78616e-20 6.63346 	-0.314286 	2.66503e-20 6.63206 	-0.314587 	2.83141e-20 6.63067 	-0.314889 	2.99778e-20 6.62927 	-0.31519 	3.16414e-20 6.62788 	-0.315491 	3.3305e-20 6.62668 	-0.315769 	3.46869e-20 6.61777 	-0.317729 	3.5824e-20 6.60889 	-0.319663 	3.76894e-20 6.59994 	-0.321596 	3.95428e-20 6.59091 	-0.323528 	4.1384e-20 6.5833 	-0.325288 	5.07235e-20 6.57335 	-0.327454 	5.52948e-20 6.56409 	-0.329426 	5.25592e-20 6.55474 	-0.331398 	4.98308e-20 6.54532 	-0.333369 	4.71097e-20 6.53863 	-0.335018 	2.10682e-20 6.52776 	-0.337352 	4.58152e-20 6.51793 	-0.339399 	4.20828e-20 6.50818 	-0.341407 	3.44465e-20 6.49948 	-0.343287 	1.61306e-20 6.49262 	-0.344948 	-2.03995e-20 6.48134 	-0.347312 	-1.13195e-20 6.47038 	-0.34957 	-5.95768e-21 6.46021 	-0.351611 	-8.35568e-21 6.45248 	-0.353368 	-8.12233e-21 6.4452 	-0.355066 	-7.33912e-21 6.4335 	-0.357456 	-5.51964e-21 6.4217 	-0.359846 	-3.6887e-21 6.41167 	-0.361896 	2.01906e-21 6.40403 	-0.363626 	8.74739e-21 6.39632 	-0.365357 	1.54812e-20 6.38417 	-0.367771 	1.00673e-20 6.37193 	-0.370185 	4.65933e-21 6.36216 	-0.372289 	0 6.35407 	-0.374047 	0 6.34591 	-0.375806 	0 6.33331 	-0.37824 	0 6.32147 	-0.380578 	0 6.31171 	-0.382676 	0 6.30254 	-0.384612 	0 6.29391 	-0.386394 	0 6.28084 	-0.388844 	0 6.27009 	-0.391028 	4.75719e-21 6.25987 	-0.393144 	1.07056e-20 6.24956 	-0.395259 	1.66585e-20 6.24027 	-0.397106 	2.26322e-20 6.22771 	-0.39946 	1.98587e-20 6.21709 	-0.40159 	2.10009e-20 6.20639 	-0.403719 	2.21523e-20 6.1956 	-0.405847 	2.33131e-20 6.18494 	-0.407923 	2.48753e-20 6.1819 	-0.408478 	2.10031e-20 6.17926 	-0.40899 	1.91741e-20 6.17661 	-0.409502 	1.73463e-20 6.17396 	-0.410014 	1.55196e-20 6.17135 	-0.410517 	1.37272e-20 6.16323 	-0.412148 	7.72332e-21 6.15505 	-0.41378 	1.72991e-21 6.14683 	-0.41541 	-4.25299e-21 6.13856 	-0.417041 	-1.02254e-20 6.13043 	-0.418534 	-2.21765e-20 6.11973 	-0.42085 	-4.08639e-20 6.10859 	-0.422996 	-4.02579e-20 6.09736 	-0.425141 	-3.9683e-20 6.08604 	-0.427286 	-3.91395e-20 6.07507 	-0.42911 	-1.0896e-20 6.0642 	-0.431577 	3.60591e-20 6.05271 	-0.433797 	4.82054e-20 6.04097 	-0.43594 	4.96253e-20 6.02937 	-0.437909 	2.23455e-20 6.01789 	-0.439719 	-3.10276e-20 6.00651 	-0.442176 	-9.19567e-20 5.99502 	-0.444627 	-1.5211e-19 5.98279 	-0.446729 	-1.56003e-19 5.97086 	-0.448532 	-8.02697e-20 5.95884 	-0.450335 	-4.49447e-21 5.94693 	-0.452778 	-1.10962e-21 5.93493 	-0.455219 	2.29389e-21 5.92294 	-0.457354 	1.02361e-20 5.91045 	-0.459143 	2.47771e-20 5.89787 	-0.460932 	3.93353e-20 5.88543 	-0.463353 	6.24782e-20 5.87301 	-0.465671 	7.78288e-20 5.86075 	-0.467759 	7.58286e-20 5.84811 	-0.469711 	6.61284e-20 5.83496 	-0.47148 	4.58635e-20 5.82198 	-0.473874 	3.57503e-20 5.80923 	-0.475955 	4.24285e-20 5.79641 	-0.478015 	5.02553e-20 5.78349 	-0.480073 	5.81106e-20 5.77007 	-0.481951 	7.57157e-20 5.76139 	-0.483401 	9.05572e-20 5.75282 	-0.484711 	8.462e-20 5.7442 	-0.48602 	7.86677e-20 5.73555 	-0.487329 	7.27004e-20 5.72724 	-0.488578 	6.69894e-20 5.72257 	-0.48931 	6.41268e-20 5.71789 	-0.490041 	6.12607e-20 5.7132 	-0.490773 	5.83911e-20 5.70849 	-0.491504 	5.55179e-20 5.70391 	-0.49216 	5.08889e-20 5.6908 	-0.494258 	1.74435e-20 5.67745 	-0.496255 	-7.44372e-21 5.664 	-0.498252 	-3.23982e-20 5.65045 	-0.500248 	-5.74204e-20 5.63732 	-0.501