# vtk DataFile Version 2.0
track0
ASCII
DATASET POLYDATA
POINTS 10885 double
-0.0205 0.001 1e-05
-0.0202034 0.00100022 1e-05
-0.0199069 0.00100067 1e-05
-0.0196103 0.00100132 1e-05
-0.0193137 0.00100216 1e-05
-0.0190172 0.0010032 1e-05
-0.0187132 0.00100461 1e-05
-0.0184093 0.00100572 1e-05
-0.0181054 0.00100681 1e-05
-0.0178015 0.00100785 1e-05
-0.0174976 0.00100886 1e-05
-0.0172058 0.00101001 1e-05
-0.016914 0.00101082 1e-05
-0.0166222 0.0010116 1e-05
-0.0163305 0.00101236 1e-05
-0.0160387 0.00101308 1e-05
-0.0157586 0.00101395 1e-05
-0.0154784 0.00101463 1e-05
-0.0151983 0.00101536 1e-05
-0.0149182 0.00101612 1e-05
-0.0146381 0.00101692 1e-05
-0.0143692 0.00101784 1e-05
-0.0141002 0.00101869 1e-05
-0.0138313 0.0010196 1e-05
-0.0135624 0.00102056 1e-05
-0.0132934 0.00102157 1e-05
-0.0130398 0.00102262 1e-05
-0.0127862 0.00102366 1e-05
-0.0125325 0.00102474 1e-05
-0.0122789 0.00102585 1e-05
-0.0120666 0.00102682 1e-05
-0.0120538 0.00102688 1e-05
-0.012041 0.00102694 1e-05
-0.0120282 0.001027 1e-05
-0.0120153 0.00102706 1e-05
-0.0120025 0.00102712 1e-05
-0.0117547 0.00102828 1e-05
-0.0115068 0.00102947 1e-05
-0.0112589 0.00103068 1e-05
-0.0110111 0.00103192 1e-05
-0.0107632 0.00103318 1e-05
-0.0105252 0.00103441 1e-05
-0.0102873 0.00103565 1e-05
-0.0100493 0.00103692 1e-05
-0.00981133 0.00103819 1e-05
-0.00957337 0.00103948 1e-05
-0.00934491 0.00104072 1e-05
-0.00911645 0.00104198 1e-05
-0.008888 0.00104324 1e-05
-0.00865954 0.00104452 1e-05
-0.00843108 0.0010458 1e-05
-0.00821175 0.00104702 1e-05
-0.00799242 0.00104826 1e-05
-0.00777309 0.0010495 1e-05
-0.00755376 0.00105074 1e-05
-0.00733443 0.00105199 1e-05
-0.00712387 0.00105317 1e-05
-0.0069133 0.00105437 1e-05
-0.00670273 0.00105556 1e-05
-0.00649217 0.00105676 1e-05
-0.0062816 0.00105796 1e-05
-0.00607944 0.00105909 1e-05
-0.00587729 0.00106023 1e-05
-0.00567514 0.00106137 1e-05
-0.00547298 0.00106251 1e-05
-0.00527083 0.00106364 1e-05
-0.00507675 0.00106471 1e-05
-0.00488267 0.00106579 1e-05
-0.0046886 0.00106687 1e-05
-0.00449452 0.00106794 1e-05
-0.00430044 0.00106901 1e-05
-0.00411412 0.00107002 1e-05
-0.0039278 0.00107103 1e-05
-0.00374147 0.00107204 1e-05
-0.00355515 0.00107305 1e-05
-0.00336883 0.00107405 1e-05
-0.00318995 0.00107498 1e-05
-0.00301107 0.00107593 1e-05
-0.00283219 0.00107686 1e-05
-0.00265331 0.0010778 1e-05
-0.00247443 0.00107872 1e-05
-0.0023027 0.00107958 1e-05
-0.00213097 0.00108045 1e-05
-0.00195924 0.00108131 1e-05
-0.0017875 0.00108217 1e-05
-0.00161577 0.00108301 1e-05
-0.0014509 0.00108379 1e-05
-0.00128603 0.00108458 1e-05
-0.00112116 0.00108535 1e-05
-0.000956289 0.00108611 1e-05
-0.000791418 0.00108686 1e-05
-0.000633135 0.00108755 1e-05
-0.000474851 0.00108823 1e-05
-0.000316567 0.00108889 1e-05
-0.000158283 0.00108953 1e-05
0 0.00109014 1e-05
0.000105677 0.00109054 1e-05
0.000211355 0.00109093 1e-05
0.000317032 0.0010913 1e-05
0.00042271 0.00109167 1e-05
0.000528387 0.00109202 1e-05
0.000634886 0.00109235 1e-05
0.000741385 0.00109269 1e-05
0.000847885 0.00109301 1e-05
0.000954384 0.00109333 1e-05
0.00106088 0.00109363 1e-05
0.00116821 0.00109392 1e-05
0.00127554 0.00109422 1e-05
0.00138286 0.0010945 1e-05
0.00149019 0.00109477 1e-05
0.00159752 0.00109504 1e-05
0.00170568 0.00109529 1e-05
0.00181384 0.00109554 1e-05
0.001922 0.00109578 1e-05
0.00203016 0.00109601 1e-05
0.00213833 0.00109623 1e-05
0.00224733 0.00109643 1e-05
0.00235633 0.00109664 1e-05
0.00246533 0.00109684 1e-05
0.00257434 0.00109704 1e-05
0.00268334 0.00109722 1e-05
0.00279319 0.00109739 1e-05
0.00290304 0.00109756 1e-05
0.00301289 0.00109773 1e-05
0.00312274 0.00109789 1e-05
0.00323259 0.00109805 1e-05
0.00334329 0.00109819 1e-05
0.003454 0.00109834 1e-05
0.0035647 0.00109848 1e-05
0.0036754 0.00109862 1e-05
0.00378611 0.00109875 1e-05
0.00389767 0.00109886 1e-05
0.00400924 0.00109899 1e-05
0.0041208 0.0010991 1e-05
0.00423237 0.00109922 1e-05
0.00434393 0.00109933 1e-05
0.00445636 0.00109942 1e-05
0.00456879 0.00109952 1e-05
0.00468123 0.00109962 1e-05
0.00479366 0.00109971 1e-05
0.00490609 0.00109979 1e-05
0.0050194 0.00109987 1e-05
0.0051327 0.00109995 1e-05
0.00524601 0.00110002 1e-05
0.00535931 0.00110009 1e-05
0.00547262 0.00110015 1e-05
0.00558681 0.00110021 1e-05
0.005701 0.00110026 1e-05
0.00581518 0.00110031 1e-05
0.00592937 0.00110036 1e-05
0.00604356 0.0011004 1e-05
0.0061218 0.00110043 1e-05
0.00620004 0.00110045 1e-05
0.00627828 0.00110048 1e-05
0.00635652 0.0011005 1e-05
0.00643319 0.00110051 1e-05
0.00647034 0.00110052 1e-05
0.00650749 0.00110053 1e-05
0.00654464 0.00110053 1e-05
0.00658178 0.00110054 1e-05
0.00661893 0.00110055 1e-05
0.0067349 0.00110056 1e-05
0.00685087 0.00110058 1e-05
0.00696684 0.00110058 1e-05
0.00708281 0.00110059 1e-05
0.00719878 0.00110059 1e-05
0.00731565 0.00110058 1e-05
0.00743252 0.00110057 1e-05
0.00754939 0.00110055 1e-05
0.00766626 0.00110054 1e-05
0.00778313 0.00110051 1e-05
0.00790091 0.00110048 1e-05
0.00801869 0.00110044 1e-05
0.00813647 0.00110041 1e-05
0.00825425 0.00110036 1e-05
0.00837203 0.00110032 1e-05
0.00849073 0.00110025 1e-05
0.00860942 0.00110019 1e-05
0.00872812 0.00110013 1e-05
0.00884682 0.00110007 1e-05
0.00896551 0.00109999 1e-05
0.00908513 0.0010999 1e-05
0.00920475 0.00109982 1e-05
0.00932437 0.00109973 1e-05
0.00944398 0.00109963 1e-05
0.0095636 0.00109954 1e-05
0.00968415 0.00109941 1e-05
0.0098047 0.0010993 1e-05
0.00992525 0.00109918 1e-05
0.0100458 0.00109906 1e-05
0.0101663 0.00109894 1e-05
0.0102878 0.00109878 1e-05
0.0104093 0.00109864 1e-05
0.0105308 0.0010985 1e-05
0.0106523 0.00109835 1e-05
0.0107738 0.00109819 1e-05
0.0108962 0.001098 1e-05
0.0110186 0.00109783 1e-05
0.0111411 0.00109765 1e-05
0.0112635 0.00109747 1e-05
0.0113859 0.00109729 1e-05
0.0115093 0.00109706 1e-05
0.0116327 0.00109686 1e-05
0.0117561 0.00109665 1e-05
0.0118795 0.00109644 1e-05
0.0120028 0.00109622 1e-05
0.0121272 0.00109596 1e-05
0.0122515 0.00109572 1e-05
0.0123759 0.00109548 1e-05
0.0125002 0.00109523 1e-05
0.0126245 0.00109498 1e-05
0.0127498 0.00109468 1e-05
0.0128752 0.00109441 1e-05
0.0130005 0.00109414 1e-05
0.0131258 0.00109385 1e-05
0.0132511 0.00109356 1e-05
0.0133774 0.00109323 1e-05
0.0135036 0.00109292 1e-05
0.0136299 0.0010926 1e-05
0.0137562 0.00109228 1e-05
0.0138825 0.00109195 1e-05
0.0140098 0.00109158 1e-05
0.014137 0.00109123 1e-05
0.0142643 0.00109088 1e-05
0.0143915 0.00109052 1e-05
0.0145188 0.00109014 1e-05
0.0146471 0.00108973 1e-05
0.0147753 0.00108933 1e-05
0.0149036 0.00108894 1e-05
0.0150318 0.00108854 1e-05
0.0151601 0.00108813 1e-05
0.0152893 0.00108767 1e-05
0.0154186 0.00108723 1e-05
0.0155478 0.0010868 1e-05
0.0156771 0.00108636 1e-05
0.0158063 0.0010859 1e-05
0.0159366 0.0010854 1e-05
0.0160668 0.00108492 1e-05
0.0161971 0.00108444 1e-05
0.0163274 0.00108395 1e-05
0.0164576 0.00108345 1e-05
0.0165889 0.00108291 1e-05
0.0167201 0.00108238 1e-05
0.0168514 0.00108185 1e-05
0.0169827 0.00108132 1e-05
0.0171139 0.00108077 1e-05
0.0172462 0.00108019 1e-05
0.0173785 0.00107961 1e-05
0.0175108 0.00107904 1e-05
0.0176431 0.00107846 1e-05
0.0177754 0.00107787 1e-05
0.0179087 0.00107724 1e-05
0.018042 0.00107662 1e-05
0.0181753 0.001076 1e-05
0.0183087 0.00107537 1e-05
0.018442 0.00107473 1e-05
0.0185763 0.00107406 1e-05
0.0187107 0.00107339 1e-05
0.018845 0.00107272 1e-05
0.0189794 0.00107204 1e-05
0.0191137 0.00107134 1e-05
0.0192491 0.00107063 1e-05
0.0193845 0.00106991 1e-05
0.0195199 0.00106919 1e-05
0.0196553 0.00106846 1e-05
0.0197907 0.00106772 1e-05
0.0199272 0.00106696 1e-05
0.0200636 0.00106619 1e-05
0.0202001 0.00106541 1e-05
0.0203365 0.00106463 1e-05
0.020473 0.00106384 1e-05
0.0206105 0.00106303 1e-05
0.020748 0.00106221 1e-05
0.0208855 0.00106139 1e-05
0.021023 0.00106055 1e-05
0.0211606 0.00105971 1e-05
0.0212991 0.00105885 1e-05
0.0214377 0.00105798 1e-05
0.0215763 0.0010571 1e-05
0.0217149 0.00105621 1e-05
0.0218535 0.00105532 1e-05
0.0219931 0.00105442 1e-05
0.0221328 0.0010535 1e-05
0.0222724 0.00105256 1e-05
0.0224121 0.00105162 1e-05
0.0225517 0.00105067 1e-05
0.0226925 0.00104972 1e-05
0.0228332 0.00104875 1e-05
0.022974 0.00104776 1e-05
0.0231147 0.00104676 1e-05
0.0232555 0.00104577 1e-05
0.0233973 0.00104477 1e-05
0.0235391 0.00104375 1e-05
0.023681 0.0010427 1e-05
0.0238228 0.00104165 1e-05
0.0239647 0.0010406 1e-05
0.0241076 0.00103955 1e-05
0.0242505 0.00103848 1e-05
0.0243935 0.00103738 1e-05
0.0245364 0.00103627 1e-05
0.0246794 0.00103518 1e-05
0.0248234 0.00103408 1e-05
0.0249675 0.00103295 1e-05
0.0251115 0.0010318 1e-05
0.0252556 0.00103064 1e-05
0.0253996 0.00102949 1e-05
0.0255448 0.00102834 1e-05
0.02569 0.00102716 1e-05
0.0258351 0.00102595 1e-05
0.0259803 0.00102474 1e-05
0.0261255 0.00102354 1e-05
0.0262718 0.00102234 1e-05
0.0264181 0.00102111 1e-05
0.0265644 0.00101985 1e-05
0.0267107 0.00101859 1e-05
0.026857 0.00101733 1e-05
0.0270044 0.00101608 1e-05
0.0271519 0.00101479 1e-05
0.0272993 0.00101349 1e-05
0.0274468 0.00101217 1e-05
0.0275942 0.00101086 1e-05
0.0277428 0.00100956 1e-05
0.0278914 0.00100822 1e-05
0.0280399 0.00100686 1e-05
0.0281885 0.00100549 1e-05
0.0283371 0.00100413 1e-05
0.0284869 0.00100277 1e-05
0.0286366 0.00100138 1e-05
0.0287863 0.000999966 1e-05
0.0289361 0.00099855 1e-05
0.0290858 0.000997131 1e-05
0.0292367 0.000995715 1e-05
0.0293876 0.000994265 1e-05
0.0295385 0.000992804 1e-05
0.0296894 0.000991336 1e-05
0.0298403 0.000989861 1e-05
0.0299924 0.00098839 1e-05
0.0301445 0.000986883 1e-05
0.0302966 0.000985369 1e-05
0.0304486 0.000983847 1e-05
0.0306007 0.000982317 1e-05
0.030754 0.000980789 1e-05
0.0309072 0.000979228 1e-05
0.0310605 0.00097766 1e-05
0.0312138 0.000976084 1e-05
0.031367 0.0009745 1e-05
0.0315215 0.000972913 1e-05
0.0316759 0.000971299 1e-05
0.0318304 0.000969676 1e-05
0.0319848 0.000968044 1e-05
0.0321393 0.000966405 1e-05
0.0322949 0.000964758 1e-05
0.0324506 0.000963088 1e-05
0.0326062 0.000961408 1e-05
0.0327619 0.00095972 1e-05
0.0329175 0.000958024 1e-05
0.0330744 0.000956316 1e-05
0.0332313 0.000954587 1e-05
0.0333881 0.00095285 1e-05
0.033545 0.000951103 1e-05
[...]
POINT_DATA 10885
 FIELD attributes 2
p 1 10885 float
-5.18943 -5.18495 -5.17742 -5.16981 -5.1621 -5.14977 -5.15613 -5.1677 -5.17927 -5.19084 -5.2163 -5.23596 -5.2687 -5.30144 -5.33419 -5.37375 -5.38821 -5.41383 -5.43947 -5.46511 -5.49596 -5.51489 -5.53992 -5.56497 -5.59004 -5.61764 -5.641 -5.66639 -5.6918 -5.71721 -5.7385 -5.73978 -5.74106 -5.74235 -5.74363 -5.74488 -5.76778 -5.79065 -5.81353 -5.83642 -5.85844 -5.87816 -5.89733 -5.9165 -5.93567 -5.95348 -5.97124 -5.98817 -6.0051 -6.02203 -6.03741 -6.0541 -6.0698 -6.0855 -6.1012 -6.11529 -6.13114 -6.14592 -6.16071 -6.17549 -6.18868 -6.20378 -6.21784 -6.23191 -6.24597 -6.25855 -6.27311 -6.28674 -6.30037 -6.314 -6.32631 -6.34058 -6.3541 -6.36762 -6.38113 -6.3935 -6.40775 -6.42142 -6.43509 -6.44876 -6.46139 -6.47584 -6.49006 -6.50429 -6.51851 -6.53172 -6.54646 -6.56122 -6.57597 -6.59073 -6.60404 -6.61725 -6.62962 -6.64199 -6.65436 -6.66447 -6.67213 -6.678 -6.68387 -6.68975 -6.69422 -6.6978 -6.69929 -6.70077 -6.70226 -6.70301 -6.7053 -6.70671 -6.70812 -6.70952 -6.71089 -6.71517 -6.71772 -6.72028 -6.72283 -6.72415 -6.72888 -6.73083 -6.73277 -6.73472 -6.73447 -6.73831 -6.73953 -6.74076 -6.74198 -6.74101 -6.74416 -6.74533 -6.7465 -6.74767 -6.74708 -6.74967 -6.75083 -6.752 -6.75316 -6.75308 -6.75491 -6.75578 -6.75665 -6.75752 -6.75765 -6.75871 -6.75923 -6.75974 -6.76026 -6.76043 -6.76099 -6.76131 -6.76163 -6.76195 -6.76217 -6.7624 -6.76256 -6.76273 -6.76289 -6.76305 -6.76313 -6.76321 -6.76329 -6.76337 -6.76343 -6.76365 -6.76384 -6.76404 -6.76423 -6.76434 -6.7646 -6.76478 -6.76495 -6.76513 -6.7652 -6.76548 -6.76569 -6.7659 -6.76611 -6.7663 -6.76651 -6.76679 -6.76708 -6.76736 -6.76782 -6.76786 -6.76823 -6.7686 -6.76896 -6.76984 -6.76959 -6.77004 -6.7705 -6.77096 -6.77238 -6.77173 -6.77229 -6.77284 -6.7734 -6.77549 -6.77435 -6.77502 -6.77569 -6.77635 -6.77922 -6.77754 -6.77833 -6.77912 -6.77991 -6.78364 -6.78138 -6.7823 -6.78323 -6.78415 -6.78878 -6.78594 -6.787 -6.78806 -6.78914 -6.79465 -6.79142 -6.79242 -6.79362 -6.79531 -6.80127 -6.79799 -6.79869 -6.80006 -6.80244 -6.80877 -6.80564 -6.806 -6.80755 -6.81062 -6.81717 -6.81422 -6.81425 -6.81594 -6.81965 -6.82631 -6.82358 -6.82328 -6.82512 -6.82946 -6.8362 -6.83378 -6.83322 -6.83523 -6.84019 -6.84697 -6.84497 -6.84427 -6.84646 -6.85194 -6.85867 -6.85715 -6.85638 -6.85873 -6.86461 -6.87118 -6.87013 -6.86934 -6.87185 -6.87803 -6.88441 -6.88382 -6.88324 -6.88598 -6.89216 -6.89834 -6.89823 -6.89812 -6.90101 -6.90699 -6.91297 -6.91333 -6.91369 -6.91673 -6.9225 -6.92828 -6.9291 -6.92993 -6.93311 -6.93868 -6.94426 -6.94553 -6.9468 -6.95012 -6.9555 -6.96088 -6.96257 -6.96427 -6.96771 -6.97292 -6.97812 -6.98021 -6.9823 -6.98587 -6.99091 -6.99595 -6.99841 -7.00086 -7.00455 -7.00945 -7.01435 -7.01714 -7.01998 -7.0238 -7.02851 -7.03329 -7.03638 -7.03962 -7.04354 -7.04806 -7.05275 -7.05611 -7.05967 -7.06368 -7.06808 -7.0727 -7.07629 -7.0801 -7.0842 -7.08854 -7.09311 -7.0969 -7.10092 -7.1051 -7.10941 -7.11396 -7.11793 -7.12211 -7.12637 -7.13069 -7.13523 -7.13938 -7.14368 -7.14801 -7.15236 -7.15689 -7.16121 -7.1656 -7.17 -7.1744 -7.1789 -7.18335 -7.1878 -7.19226 -7.19671 -7.20118 -7.2057 -7.2102 -7.2147 -7.2192 -7.22367 -7.22823 -7.23276 -7.23729 -7.24182 -7.24632 -7.25089 -7.25545 -7.26 -7.26455 -7.26908 -7.27366 -7.27822 -7.28279 -7.28735 -7.29191 -7.29559 -7.29926 -7.30294 -7.30661 -7.31018 -7.31109 -7.312 -7.31292 -7.31383 -7.31475 -7.31931 -7.32387 -7.32843 -7.33299 -7.33759 -7.3421 -7.34663 -7.35117 -7.3557 -7.36031 -7.36476 -7.36926 -7.37375 -7.37825 -7.38283 -7.38723 -7.39167 -7.39611 -7.40056 -7.4051 -7.40943 -7.4138 -7.41818 -7.42255 -7.42702 -7.43128 -7.43557 -7.43986 -7.44415 -7.44853 -7.45271 -7.45689 -7.46108 -7.46528 -7.46953 -7.47361 -7.47768 -7.48174 -7.48582 -7.48993 -7.49389 -7.49783 -7.50175 -7.50569 -7.50964 -7.51346 -7.51726 -7.52102 -7.52478 -7.52854 -7.5322 -7.53585 -7.53942 -7.54297 -7.54653 -7.54999 -7.55346 -7.55682 -7.56015 -7.56347 -7.56672 -7.56997 -7.57312 -7.5762 -7.57928 -7.58229 -7.58531 -7.58822 -7.59102 -7.59383 -7.59658 -7.59934 -7.60198 -7.60449 -7.607 -7.60946 -7.61192 -7.61428 -7.61646 -7.61865 -7.6208 -7.62294 -7.62497 -7.62682 -7.62866 -7.63046 -7.63223 -7.6339 -7.63542 -7.63686 -7.63829 -7.63964 -7.64091 -7.64208 -7.6431 -7.64412 -7.64502 -7.64586 -7.64665 -7.64723 -7.64781 -7.64821 -7.64859 -7.64897 -7.64908 -7.64916 -7.64905 -7.64893 -7.64882 -7.64849 -7.64801 -7.64737 -7.64673 -7.6461 -7.64531 -7.64422 -7.64302 -7.64182 -7.64063 -7.63936 -7.63806 -7.63671 -7.63536 -7.63401 -7.63273 -7.63229 -7.63184 -7.6314 -7.63096 -7.63049 -7.62814 -7.62576 -7.62339 -7.62102 -7.61852 -7.61565 -7.61262 -7.60959 -7.60656 -7.60328 -7.59987 -7.59614 -7.59242 -7.5887 -7.58459 -7.58062 -7.57616 -7.57171 -7.56721 -7.56228 -7.55758 -7.55251 -7.5473 -7.54188 -7.53616 -7.5307 -7.52501 -7.519 -7.51263 -7.50609 -7.49981 -7.49349 -7.48666 -7.47927 -7.47188 -7.46476 -7.45764 -7.44993 -7.44164 -7.43336 -7.42536 -7.41737 -7.40878 -7.39958 -7.39038 -7.38147 -7.37257 -7.36307 -7.35291 -7.34276 -7.33291 -7.32291 -7.3124 -7.30149 -7.29035 -7.27953 -7.26832 -7.25681 -7.24514 -7.23299 -7.22117 -7.2087 -7.19616 -7.18363 -7.17054 -7.15749 -7.1439 -7.13031 -7.11672 -7.10284 -7.08845 -7.07377 -7.0591 -7.04444 -7.02976 -7.02894 -7.0281 -7.02727 -7.02644 -7.02561 -7.01079 -6.99597 -6.98117 -6.96637 -6.95132 -6.93481 -6.91806 -6.9013 -6.88456 -6.86727 -6.84992 -6.83202 -6.81413 -6.79609 -6.77748 -6.759 -6.74022 -6.72116 -6.70164 -6.68184 -6.66219 -6.64254 -6.62224 -6.60124 -6.58024 -6.55939 -6.53854 -6.51701 -6.4948 -6.47259 -6.45052 -6.42846 -6.4056 -6.38224 -6.3588 -6.33551 -6.31183 -6.28773 -6.26349 -6.2388 -6.21428 -6.18894 -6.16359 -6.13825 -6.11254 -6.08653 -6.06011 -6.03369 -6.00728 -5.98268 -5.98214 -5.98159 -5.98104 -5.98049 -5.97994 -5.95215 -5.92437 -5.8966 -5.86883 -5.84075 -5.81195 -5.7829 -5.75387 -5.72482 -5.69517 -5.66522 -5.63504 -5.60474 -5.57408 -5.54317 -5.51195 -5.48074 -5.44911 -5.41692 -5.38474 -5.35225 -5.31977 -5.28678 -5.25333 -5.21988 -5.18613 -5.15222 -5.11785 -5.08332 -5.04861 -5.01361 -4.97806 -4.94244 -4.90682 -4.87098 -4.83949 -4.80767 -4.77586 -4.74406 -4.71402 -4.70863 -4.70324 -4.69785 -4.69246 -4.68701 -4.64906 -4.61107 -4.57309 -4.53513 -4.49667 -4.45778 -4.41859 -4.37942 -4.34002 -4.30015 -4.26009 -4.21997 -4.17961 -4.13859 -4.09754 -4.0563 -4.01508 -3.97334 -3.93115 -3.88895 -3.84656 -3.80398 -3.76095 -3.71781 -3.67449 -3.63098 -3.58684 -3.5427 -3.49856 -3.4543 -3.43367 -3.41285 -3.39202 -3.37119 -3.35095 -3.32648 -3.30202 -3.27757 -3.25311 -3.22839 -3.18234 -3.13617 -3.09 -3.04379 -2.99694 -2.94999 -2.90293 -2.85576 -2.80807 -2.76023 -2.71229 -2.66435 -2.61599 -2.56723 -2.51845 -2.46955 -2.42049 -2.37101 -2.32147 -2.27179 -2.22195 -2.17158 -2.12122 -2.07087 -2.02047 -2.0103 -2.00004 -1.98978 -1.97953 -1.96939 -1.92847 -1.88755 -1.84665 -1.80575 -1.76446 -1.71267 -1.66074 -1.60883 -1.55669 -1.50419 -1.45164 -1.39911 -1.34634 -1.29317 -1.23997 -1.1867 -1.13343 -1.07969 -1.02589 -0.972017 -0.918083 -0.863753 -0.809376 -0.75501 -0.700574 -0.683461 -0.666237 -0.649015 -0.631793 -0.614861 -0.577068 -0.539279 -0.501495 -0.463717 -0.425653 -0.370211 -0.314732 -0.259263 -0.203624 -0.147726 -0.091792 -0.0358698 0.0201663 0.0764362 0.132744 0.189096 0.245505 0.302152 0.358788 0.415461 0.469603 0.523976 0.578339 0.632693 0.684436 0.687584 0.690732 0.69388 0.697028 0.700193 0.75751 0.814817 0.872114 0.929401 0.986998 1.04459 1.10215 1.15968 1.21741 1.2752 1.33299 1.39078 1.4487 1.50657 1.56449 1.62242 1.68045 1.73849 1.79651 1.85456 1.86596 1.87739 1.88881 1.90023 1.91154 1.9583 2.00506 2.0518 2.09854 2.14541 2.20369 2.26187 2.32002 2.37821 2.43646 2.49469 2.55291 2.61112 2.6692 2.72733 2.78544 2.84352 2.90158 2.95964 3.0177 3.02591 3.03411 3.04231 3.05051 3.05866 3.10847 3.15827 3.20806 3.25785 3.30763 3.36557 3.42341 3.48115 3.5388 3.59648 3.65413 3.71176 3.76924 3.82658 3.8839 3.93221 3.98037 4.0285 4.07663 4.12321 4.13251 4.1418 4.1511 4.16039 4.16966 4.22659 4.28345 4.3403 4.39708 4.45377 4.51037 4.56697 4.6233 4.67939 4.73554 4.79162 4.84755 4.90332 4.95908 5.01471 5.03325 5.05169 5.07012 5.08854 5.10676 5.14372 5.18068 5.21764 5.25457 5.29135 5.34639 5.40127 5.45605 5.51052 5.565 5.61937 5.67371 5.72769 5.78153 5.83527 5.87146 5.90742 5.94333 5.97923 6.01456 6.0321 6.04964 6.06718 6.08469 6.10211 6.15506 6.20782 6.26057 6.3131 6.36547 6.41769 6.4699 6.52177 6.57325 6.62477 6.67102 6.71692 6.76273 6.80854 6.85379 6.85902 6.86425 6.86948 6.8747 6.87988 6.93031 6.98067 7.03103 7.0812 7.13106 7.18079 7.23052 7.27983 7.32872 7.37762 7.42262 7.46722 7.5117 7.55617 7.60054 7.60433 7.60813 7.61192 7.61571 7.61946 7.66716 7.71479 7.76243 7.80986 7.85692 7.90385 7.95078 7.99726 8.04329 8.08932 8.12915 8.16861 8.20792 8.24723 8.28694 8.29289 8.29885 8.3048 8.31073 8.31661 8.36137 8.40603 8.45069 8.4951 8.53913 8.58302 8.6269 8.67033 8.7133 8.75624 8.79063 8.82466 8.85855 8.89245 8.9271 8.9353 8.9435 8.9517 8.95987 8.96795 9.00959 9.05108 9.09257 9.13376 9.17461 9.21527 9.25593 9.29613 9.33589 9.37559 9.40725 9.43853 9.4697 9.50087 9.53318 9.54077 9.54835 9.55594 9.5635 9.57097 9.60929 9.64747 9.68566 9.72358 9.76113 9.79844 9.83576 9.87263 9.90906 9.94544 9.97964 10.0134 10.0471 10.0807 10.1165 10.118 10.1195 10.121 10.1224 10.1239 10.1587 10.1935 10.2283 10.263 10.2972 10.3311 10.365 10.3985 10.4316 10.4646 10.4973 10.5298 10.562 10.5942 10.6261 10.6386 10.6508 10.6631 10.6754 10.6881 10.707 10.7258 10.7447 10.7636 10.7821 10.8127 10.8429 10.8731 10.9031 10.9329 10.9623 10.9918 11.0206 11.0485 11.0763 11.1039 11.1321 11.1607 11.1893 11.218 11.2313 11.2415 11.2518 11.2621 11.2735 11.2858 11.2982 11.3105 11.3228 11.3325 11.3524 11.3774 11.4024 11.4302 11.467 11.5033 11.5395 11.5609 11.5677 11.5745 11.5804 11.5902 11.6026 11.6149 11.6281 11.6303 11.6323 11.6342 11.6362 11.6382 11.6503 11.6624 11.6745 11.6864 11.6975 11.7098 11.722 11.7325 11.7413 11.7502 11.758 11.7652 11.7715 11.7778 11.783 11.7848 11.7859 11.7868 11.7878 11.7889 11.7907 11.7925 11.7943 11.796 11.7969 11.797 11.7958 11.7944 11.7917 11.7883 11.7832 11.7781 11.771 11.7619 11.7528 11.7417 11.7288 11.715 11.7012 11.6863 11.68 11.6727 11.6654 11.658 11.65 11.6376 11.6251 11.6126 11.6 11.5859 11.5608 11.5334 11.5059 11.4769 11.4462 11.4125 11.3786 11.3415 11.3013 11.261 11.2173 11.1729 11.125 11.0755 11.0244 10.9695 10.9103 10.8508 10.7912 10.7301 10.7023 10.6729 10.6435 10.6141 10.5812 10.5397 10.4982 10.4566 10.415 10.3714 10.2885 10.2031 10.1177 10.0317 9.94079 9.84435 9.7448 9.64256 9.53533 9.42606 9.31071 9.19529 9.07428 8.94805 8.82169 8.68876 8.55575 8.41209 8.2576 8.10297 7.94081 7.77783 7.61375 7.44904 7.28311 7.10937 6.9072 6.70256 6.49797 6.2745 6.04597 5.83566 5.6253 5.41489 5.20914 5.11991 5.01051 4.90118 4.7919 4.66722 4.47356 4.2797 4.08562 3.89135 3.66482 3.35141 3.0968 2.84143 2.58536 2.47263 2.37504 1.94724 1.5247 0.942233 0