# vtk DataFile Version 2.0
track0
ASCII
DATASET POLYDATA
POINTS 10885 double
-0.0205 0.001 1e-05
-0.0202034 0.00100022 1e-05
-0.0199069 0.00100067 1e-05
-0.0196103 0.00100132 1e-05
-0.0193137 0.00100216 1e-05
-0.0190172 0.0010032 1e-05
-0.0187132 0.00100461 1e-05
-0.0184093 0.00100572 1e-05
-0.0181054 0.00100681 1e-05
-0.0178015 0.00100785 1e-05
-0.0174976 0.00100886 1e-05
-0.0172058 0.00101001 1e-05
-0.016914 0.00101082 1e-05
-0.0166222 0.0010116 1e-05
-0.0163305 0.00101236 1e-05
-0.0160387 0.00101308 1e-05
-0.0157586 0.00101395 1e-05
-0.0154784 0.00101463 1e-05
-0.0151983 0.00101536 1e-05
-0.0149182 0.00101612 1e-05
-0.0146381 0.00101692 1e-05
-0.0143692 0.00101784 1e-05
-0.0141002 0.00101869 1e-05
-0.0138313 0.0010196 1e-05
-0.0135624 0.00102056 1e-05
-0.0132934 0.00102157 1e-05
-0.0130398 0.00102262 1e-05
-0.0127862 0.00102366 1e-05
-0.0125325 0.00102474 1e-05
-0.0122789 0.00102585 1e-05
-0.0120666 0.00102682 1e-05
-0.0120538 0.00102688 1e-05
-0.012041 0.00102694 1e-05
-0.0120282 0.001027 1e-05
-0.0120153 0.00102706 1e-05
-0.0120025 0.00102712 1e-05
-0.0117547 0.00102828 1e-05
-0.0115068 0.00102947 1e-05
-0.0112589 0.00103068 1e-05
-0.0110111 0.00103192 1e-05
-0.0107632 0.00103318 1e-05
-0.0105252 0.00103441 1e-05
-0.0102873 0.00103565 1e-05
-0.0100493 0.00103692 1e-05
-0.00981133 0.00103819 1e-05
-0.00957337 0.00103948 1e-05
-0.00934491 0.00104072 1e-05
-0.00911645 0.00104198 1e-05
-0.008888 0.00104324 1e-05
-0.00865954 0.00104452 1e-05
-0.00843108 0.0010458 1e-05
-0.00821175 0.00104702 1e-05
-0.00799242 0.00104826 1e-05
-0.00777309 0.0010495 1e-05
-0.00755376 0.00105074 1e-05
-0.00733443 0.00105199 1e-05
-0.00712387 0.00105317 1e-05
-0.0069133 0.00105437 1e-05
-0.00670273 0.00105556 1e-05
-0.00649217 0.00105676 1e-05
-0.0062816 0.00105796 1e-05
-0.00607944 0.00105909 1e-05
-0.00587729 0.00106023 1e-05
-0.00567514 0.00106137 1e-05
-0.00547298 0.00106251 1e-05
-0.00527083 0.00106364 1e-05
-0.00507675 0.00106471 1e-05
-0.00488267 0.00106579 1e-05
-0.0046886 0.00106687 1e-05
-0.00449452 0.00106794 1e-05
-0.00430044 0.00106901 1e-05
-0.00411412 0.00107002 1e-05
-0.0039278 0.00107103 1e-05
-0.00374147 0.00107204 1e-05
-0.00355515 0.00107305 1e-05
-0.00336883 0.00107405 1e-05
-0.00318995 0.00107498 1e-05
-0.00301107 0.00107593 1e-05
-0.00283219 0.00107686 1e-05
-0.00265331 0.0010778 1e-05
-0.00247443 0.00107872 1e-05
-0.0023027 0.00107958 1e-05
-0.00213097 0.00108045 1e-05
-0.00195924 0.00108131 1e-05
-0.0017875 0.00108217 1e-05
-0.00161577 0.00108301 1e-05
-0.0014509 0.00108379 1e-05
-0.00128603 0.00108458 1e-05
-0.00112116 0.00108535 1e-05
-0.000956289 0.00108611 1e-05
-0.000791418 0.00108686 1e-05
-0.000633135 0.00108755 1e-05
-0.000474851 0.00108823 1e-05
-0.000316567 0.00108889 1e-05
-0.000158283 0.00108953 1e-05
0 0.00109014 1e-05
0.000105677 0.00109054 1e-05
0.000211355 0.00109093 1e-05
0.000317032 0.0010913 1e-05
0.00042271 0.00109167 1e-05
0.000528387 0.00109202 1e-05
0.000634886 0.00109235 1e-05
0.000741385 0.00109269 1e-05
0.000847885 0.00109301 1e-05
0.000954384 0.00109333 1e-05
0.00106088 0.00109363 1e-05
0.00116821 0.00109392 1e-05
0.00127554 0.00109422 1e-05
0.00138286 0.0010945 1e-05
0.00149019 0.00109477 1e-05
0.00159752 0.00109504 1e-05
0.00170568 0.00109529 1e-05
0.00181384 0.00109554 1e-05
0.001922 0.00109578 1e-05
0.00203016 0.00109601 1e-05
0.00213833 0.00109623 1e-05
0.00224733 0.00109643 1e-05
0.00235633 0.00109664 1e-05
0.00246533 0.00109684 1e-05
0.00257434 0.00109704 1e-05
0.00268334 0.00109722 1e-05
0.00279319 0.00109739 1e-05
0.00290304 0.00109756 1e-05
0.00301289 0.00109773 1e-05
0.00312274 0.00109789 1e-05
0.00323259 0.00109805 1e-05
0.00334329 0.00109819 1e-05
0.003454 0.00109834 1e-05
0.0035647 0.00109848 1e-05
0.0036754 0.00109862 1e-05
0.00378611 0.00109875 1e-05
0.00389767 0.00109886 1e-05
0.00400924 0.00109899 1e-05
0.0041208 0.0010991 1e-05
0.00423237 0.00109922 1e-05
0.00434393 0.00109933 1e-05
0.00445636 0.00109942 1e-05
0.00456879 0.00109952 1e-05
0.00468123 0.00109962 1e-05
0.00479366 0.00109971 1e-05
0.00490609 0.00109979 1e-05
0.0050194 0.00109987 1e-05
0.0051327 0.00109995 1e-05
0.00524601 0.00110002 1e-05
0.00535931 0.00110009 1e-05
0.00547262 0.00110015 1e-05
0.00558681 0.00110021 1e-05
0.005701 0.00110026 1e-05
0.00581518 0.00110031 1e-05
0.00592937 0.00110036 1e-05
0.00604356 0.0011004 1e-05
0.0061218 0.00110043 1e-05
0.00620004 0.00110045 1e-05
0.00627828 0.00110048 1e-05
0.00635652 0.0011005 1e-05
0.00643319 0.00110051 1e-05
0.00647034 0.00110052 1e-05
0.00650749 0.00110053 1e-05
0.00654464 0.00110053 1e-05
0.00658178 0.00110054 1e-05
0.00661893 0.00110055 1e-05
0.0067349 0.00110056 1e-05
0.00685087 0.00110058 1e-05
0.00696684 0.00110058 1e-05
0.00708281 0.00110059 1e-05
0.00719878 0.00110059 1e-05
0.00731565 0.00110058 1e-05
0.00743252 0.00110057 1e-05
0.00754939 0.00110055 1e-05
0.00766626 0.00110054 1e-05
0.00778313 0.00110051 1e-05
0.00790091 0.00110048 1e-05
0.00801869 0.00110044 1e-05
0.00813647 0.00110041 1e-05
0.00825425 0.00110036 1e-05
0.00837203 0.00110032 1e-05
0.00849073 0.00110025 1e-05
0.00860942 0.00110019 1e-05
0.00872812 0.00110013 1e-05
0.00884682 0.00110007 1e-05
0.00896551 0.00109999 1e-05
0.00908513 0.0010999 1e-05
0.00920475 0.00109982 1e-05
0.00932437 0.00109973 1e-05
0.00944398 0.00109963 1e-05
0.0095636 0.00109954 1e-05
0.00968415 0.00109941 1e-05
0.0098047 0.0010993 1e-05
0.00992525 0.00109918 1e-05
0.0100458 0.00109906 1e-05
0.0101663 0.00109894 1e-05
0.0102878 0.00109878 1e-05
0.0104093 0.00109864 1e-05
0.0105308 0.0010985 1e-05
0.0106523 0.00109835 1e-05
0.0107738 0.00109819 1e-05
0.0108962 0.001098 1e-05
0.0110186 0.00109783 1e-05
0.0111411 0.00109765 1e-05
0.0112635 0.00109747 1e-05
0.0113859 0.00109729 1e-05
0.0115093 0.00109706 1e-05
0.0116327 0.00109686 1e-05
0.0117561 0.00109665 1e-05
0.0118795 0.00109644 1e-05
0.0120028 0.00109622 1e-05
0.0121272 0.00109596 1e-05
0.0122515 0.00109572 1e-05
0.0123759 0.00109548 1e-05
0.0125002 0.00109523 1e-05
0.0126245 0.00109498 1e-05
0.0127498 0.00109468 1e-05
0.0128752 0.00109441 1e-05
0.0130005 0.00109414 1e-05
0.0131258 0.00109385 1e-05
0.0132511 0.00109356 1e-05
0.0133774 0.00109323 1e-05
0.0135036 0.00109292 1e-05
0.0136299 0.0010926 1e-05
0.0137562 0.00109228 1e-05
0.0138825 0.00109195 1e-05
0.0140098 0.00109158 1e-05
0.014137 0.00109123 1e-05
0.0142643 0.00109088 1e-05
0.0143915 0.00109052 1e-05
0.0145188 0.00109014 1e-05
0.0146471 0.00108973 1e-05
0.0147753 0.00108933 1e-05
0.0149036 0.00108894 1e-05
0.0150318 0.00108854 1e-05
0.0151601 0.00108813 1e-05
0.0152893 0.00108767 1e-05
0.0154186 0.00108723 1e-05
0.0155478 0.0010868 1e-05
0.0156771 0.00108636 1e-05
0.0158063 0.0010859 1e-05
0.0159366 0.0010854 1e-05
0.0160668 0.00108492 1e-05
0.0161971 0.00108444 1e-05
0.0163274 0.00108395 1e-05
0.0164576 0.00108345 1e-05
0.0165889 0.00108291 1e-05
0.0167201 0.00108238 1e-05
0.0168514 0.00108185 1e-05
0.0169827 0.00108132 1e-05
0.0171139 0.00108077 1e-05
0.0172462 0.00108019 1e-05
0.0173785 0.00107961 1e-05
0.0175108 0.00107904 1e-05
0.0176431 0.00107846 1e-05
0.0177754 0.00107787 1e-05
0.0179087 0.00107724 1e-05
0.018042 0.00107662 1e-05
0.0181753 0.001076 1e-05
0.0183087 0.00107537 1e-05
0.018442 0.00107473 1e-05
0.0185763 0.00107406 1e-05
0.0187107 0.00107339 1e-05
0.018845 0.00107272 1e-05
0.0189794 0.00107204 1e-05
0.0191137 0.00107134 1e-05
0.0192491 0.00107063 1e-05
0.0193845 0.00106991 1e-05
0.0195199 0.00106919 1e-05
0.0196553 0.00106846 1e-05
0.0197907 0.00106772 1e-05
0.0199272 0.00106696 1e-05
0.0200636 0.00106619 1e-05
0.0202001 0.00106541 1e-05
0.0203365 0.00106463 1e-05
0.020473 0.00106384 1e-05
0.0206105 0.00106303 1e-05
0.020748 0.00106221 1e-05
0.0208855 0.00106139 1e-05
0.021023 0.00106055 1e-05
0.0211606 0.00105971 1e-05
0.0212991 0.00105885 1e-05
0.0214377 0.00105798 1e-05
0.0215763 0.0010571 1e-05
0.0217149 0.00105621 1e-05
0.0218535 0.00105532 1e-05
0.0219931 0.00105442 1e-05
0.0221328 0.0010535 1e-05
0.0222724 0.00105256 1e-05
0.0224121 0.00105162 1e-05
0.0225517 0.00105067 1e-05
0.0226925 0.00104972 1e-05
0.0228332 0.00104875 1e-05
0.022974 0.00104776 1e-05
0.0231147 0.00104676 1e-05
0.0232555 0.00104577 1e-05
0.0233973 0.00104477 1e-05
0.0235391 0.00104375 1e-05
0.023681 0.0010427 1e-05
0.0238228 0.00104165 1e-05
0.0239647 0.0010406 1e-05
0.0241076 0.00103955 1e-05
0.0242505 0.00103848 1e-05
0.0243935 0.00103738 1e-05
0.0245364 0.00103627 1e-05
0.0246794 0.00103518 1e-05
0.0248234 0.00103408 1e-05
0.0249675 0.00103295 1e-05
0.0251115 0.0010318 1e-05
0.0252556 0.00103064 1e-05
0.0253996 0.00102949 1e-05
0.0255448 0.00102834 1e-05
0.02569 0.00102716 1e-05
0.0258351 0.00102595 1e-05
0.0259803 0.00102474 1e-05
0.0261255 0.00102354 1e-05
0.0262718 0.00102234 1e-05
0.0264181 0.00102111 1e-05
0.0265644 0.00101985 1e-05
0.0267107 0.00101859 1e-05
0.026857 0.00101733 1e-05
0.0270044 0.00101608 1e-05
0.0271519 0.00101479 1e-05
0.0272993 0.00101349 1e-05
0.0274468 0.00101217 1e-05
0.0275942 0.00101086 1e-05
0.0277428 0.00100956 1e-05
0.0278914 0.00100822 1e-05
0.0280399 0.00100686 1e-05
0.0281885 0.00100549 1e-05
0.0283371 0.00100413 1e-05
0.0284869 0.00100277 1e-05
0.0286366 0.00100138 1e-05
0.0287863 0.000999966 1e-05
0.0289361 0.00099855 1e-05
0.0290858 0.000997131 1e-05
0.0292367 0.000995715 1e-05
0.0293876 0.000994265 1e-05
0.0295385 0.000992804 1e-05
0.0296894 0.000991336 1e-05
0.0298403 0.000989861 1e-05
0.0299924 0.00098839 1e-05
0.0301445 0.000986883 1e-05
0.0302966 0.000985369 1e-05
0.0304486 0.000983847 1e-05
0.0306007 0.000982317 1e-05
0.030754 0.000980789 1e-05
0.0309072 0.000979228 1e-05
0.0310605 0.00097766 1e-05
0.0312138 0.000976084 1e-05
0.031367 0.0009745 1e-05
0.0315215 0.000972913 1e-05
0.0316759 0.000971299 1e-05
0.0318304 0.000969676 1e-05
0.0319848 0.000968044 1e-05
0.0321393 0.000966405 1e-05
0.0322949 0.000964758 1e-05
0.0324506 0.000963088 1e-05
0.0326062 0.000961408 1e-05
0.0327619 0.00095972 1e-05
0.0329175 0.000958024 1e-05
0.0330744 0.000956316 1e-05
0.0332313 0.000954587 1e-05
0.0333881 0.00095285 1e-05
0.033545 0.000951103 1e-05
[...]
POINT_DATA 10885
 FIELD attributes 1
U 3 10885 float
10.0004 	0.0075761 	0 10.0023 	0.015132 	0 10.0042 	0.021795 	0 10.0061 	0.0284127 	0 10.008 	0.0349856 	0 10.0143 	0.046441 	0 10.016 	0.0368185 	0 10.0207 	0.0356232 	0 10.0255 	0.0344309 	0 10.0302 	0.0332416 	0 10.0386 	0.0396422 	0 10.0406 	0.0279029 	0 10.0458 	0.0269482 	0 10.051 	0.0259906 	0 10.0562 	0.0250303 	0 10.0638 	0.0310674 	0 10.0662 	0.0246582 	0 10.0707 	0.0260111 	0 10.0752 	0.0273697 	0 10.0797 	0.0287342 	0 10.0854 	0.0346049 	0 10.0883 	0.0320862 	0 10.0922 	0.0340294 	0 10.0961 	0.0359804 	0 10.1 	0.0379394 	0 10.1041 	0.0418046 	0 10.1072 	0.0414828 	0 10.1105 	0.0429633 	0 10.1137 	0.0444488 	0 10.1169 	0.0459392 	0 10.1196 	0.047191 	0 10.1198 	0.0472666 	0 10.1199 	0.0473423 	0 10.1201 	0.0474179 	0 10.1203 	0.0474936 	0 10.1204 	0.0475429 	0 10.123 	0.0485638 	0 10.1255 	0.0495677 	0 10.128 	0.0505744 	0 10.1306 	0.0515837 	0 10.1333 	0.0521041 	0 10.1349 	0.0531011 	0 10.1367 	0.0537471 	0 10.1384 	0.0543944 	0 10.1402 	0.0550431 	0 10.1424 	0.0548723 	0 10.1433 	0.0558375 	0 10.1445 	0.0562189 	0 10.1456 	0.056601 	0 10.1468 	0.0569836 	0 10.1486 	0.0563528 	0 10.149 	0.0572546 	0 10.1497 	0.0574316 	0 10.1504 	0.0576087 	0 10.1511 	0.0577861 	0 10.1524 	0.0568653 	0 10.1527 	0.0576814 	0 10.153 	0.0577039 	0 10.1533 	0.0577264 	0 10.1536 	0.0577489 	0 10.1543 	0.056665 	0 10.1548 	0.0573844 	0 10.1548 	0.0572898 	0 10.1548 	0.0571952 	0 10.1548 	0.0571005 	0 10.1548 	0.0559354 	0 10.1557 	0.0565495 	0 10.1555 	0.0563603 	0 10.1552 	0.0561711 	0 10.1549 	0.0559817 	0 10.1541 	0.0547812 	0 10.1558 	0.0552813 	0 10.1553 	0.0550016 	0 10.1549 	0.0547219 	0 10.1544 	0.054442 	0 10.1527 	0.0532134 	0 10.1552 	0.0535804 	0 10.1547 	0.0532007 	0 10.1541 	0.0528209 	0 10.1535 	0.0524411 	0 10.1507 	0.0511747 	0 10.1544 	0.0513791 	0 10.1538 	0.0508566 	0 10.1532 	0.050334 	0 10.1526 	0.0498112 	0 10.1485 	0.0484412 	0 10.1534 	0.0483682 	0 10.1527 	0.0475411 	0 10.152 	0.0467139 	0 10.1513 	0.0458865 	0 10.1459 	0.0442406 	0 10.152 	0.0436492 	1.31236e-21 10.1512 	0.0423196 	7.05734e-21 10.1504 	0.0409898 	1.28039e-20 10.1495 	0.0396597 	1.85519e-20 10.1426 	0.0378009 	1.63582e-20 10.1493 	0.0372881 	1.03003e-19 10.1481 	0.0360732 	9.50624e-20 10.147 	0.0348582 	8.71057e-20 10.1458 	0.033643 	7.91327e-20 10.1382 	0.0320289 	-1.67429e-20 10.1445 	0.0318371 	-4.44869e-20 10.1432 	0.0309236 	-4.95872e-20 10.1418 	0.0300099 	-5.46819e-20 10.1404 	0.0290961 	-5.97712e-20 10.1327 	0.0276566 	-2.56898e-20 10.1387 	0.0276723 	-2.22402e-20 10.1373 	0.0267441 	-1.5629e-20 10.1359 	0.0258157 	-9.01862e-21 10.1345 	0.0248871 	-2.40907e-21 10.1269 	0.0232937 	7.09022e-21 10.1327 	0.0235018 	-7.98659e-21 10.1312 	0.0225745 	-2.88966e-20 10.1298 	0.0216468 	-4.98091e-20 10.1283 	0.0207187 	-7.07242e-20 10.121 	0.0189523 	-9.90671e-20 10.1262 	0.0194102 	-1.32326e-19 10.1246 	0.0186617 	-1.18383e-19 10.1231 	0.017913 	-1.04433e-19 10.1215 	0.0171638 	-9.04744e-20 10.1143 	0.0154257 	-3.474e-20 10.1189 	0.0160393 	2.74983e-20 10.1172 	0.015484 	4.24174e-20 10.1154 	0.0149283 	5.73287e-20 10.1136 	0.0143724 	7.22323e-20 10.1069 	0.0127997 	4.13471e-20 10.1107 	0.0133767 	-3.31256e-20 10.1088 	0.0129233 	-3.95799e-20 10.1069 	0.0124696 	-4.60242e-20 10.105 	0.0120156 	-5.24584e-20 10.0986 	0.0106613 	-5.82039e-22 10.1016 	0.0110671 	4.65825e-20 10.0995 	0.0106481 	3.61253e-20 10.0974 	0.0102288 	2.56587e-20 10.0953 	0.00980935 	1.51829e-20 10.0895 	0.00869351 	-3.40858e-20 10.0915 	0.00889159 	-8.25404e-20 10.0891 	0.00849148 	-1.06527e-19 10.0868 	0.00809119 	-1.3051e-19 10.0845 	0.00769071 	-1.5449e-19 10.0793 	0.00682065 	-1.55154e-19 10.08 	0.00682697 	-1.62264e-19 10.0775 	0.00644503 	-1.48653e-19 10.0749 	0.00606293 	-1.3504e-19 10.0723 	0.00568067 	-1.21424e-19 10.0678 	0.00503648 	-9.61164e-20 10.0672 	0.00487418 	-7.87863e-20 10.0643 	0.00449946 	-5.88213e-20 10.0614 	0.00412459 	-3.88574e-20 10.0585 	0.00374959 	-1.88945e-20 10.0548 	0.00328317 	5.82797e-22 10.0536 	0.00310187 	0 10.0514 	0.00284597 	0 10.0493 	0.00259001 	0 10.0471 	0.002334 	0 10.045 	0.00208305 	0 10.0439 	0.00196077 	0 10.0429 	0.00183849 	0 10.0418 	0.00171618 	0 10.0408 	0.00159387 	0 10.0369 	0.00140187 	-1.14017e-22 10.0361 	0.00109385 	-1.89632e-20 10.0325 	0.000710143 	-3.84556e-20 10.0289 	0.000326309 	-5.7947e-20 10.0254 	-5.76475e-05 	-7.74372e-20 10.0097 	-0.000795089 	-9.68042e-20 10.0174 	-0.000820898 	-1.0301e-19 10.0134 	-0.00121136 	-1.05121e-19 10.0095 	-0.00160195 	-1.07233e-19 10.0055 	-0.00199266 	-1.09346e-19 9.97977 	-0.0030913 	-1.06628e-19 9.99637 	-0.00278344 	-9.78208e-20 9.99201 	-0.0031799 	-6.71234e-20 9.98766 	-0.00357648 	-3.64322e-20 9.9833 	-0.00397318 	-5.74706e-21 9.94699 	-0.00546593 	4.82826e-20 9.9728 	-0.00480706 	4.89437e-20 9.96803 	-0.00520909 	5.02772e-20 9.96325 	-0.00561126 	5.16092e-20 9.95847 	-0.00601356 	5.29399e-20 9.91141 	-0.00790292 	5.83144e-20 9.94651 	-0.00690232 	4.54966e-20 9.94129 	-0.0073089 	3.26775e-20 9.93607 	-0.00771564 	1.98577e-20 9.93085 	-0.00812253 	7.03704e-21 9.87309 	-0.0103846 	-1.87793e-21 9.91734 	-0.00907183 	-6.47599e-21 9.91167 	-0.00948283 	-1.86162e-20 9.906 	-0.009894 	-3.07557e-20 9.90032 	-0.0103053 	-4.28944e-20 9.83212 	-0.0128991 	-5.50573e-20 9.88519 	-0.0113176 	-5.15796e-20 9.87906 	-0.0117332 	-5.96058e-20 9.87292 	-0.0121491 	-6.76297e-20 9.86678 	-0.0125651 	-7.56516e-20 9.78864 	-0.015437 	-9.98665e-20 9.84997 	-0.0136381 	-1.82887e-19 9.84338 	-0.014058 	-1.72981e-19 9.83678 	-0.0144781 	-1.63084e-19 9.83018 	-0.0148984 	-1.53195e-19 9.74279 	-0.0179866 	-4.56306e-20 9.81166 	-0.0160274 	-2.75295e-20 9.80461 	-0.0164521 	-1.88884e-20 9.79756 	-0.016877 	-1.02466e-20 9.79049 	-0.0173022 	-1.60433e-21 9.69476 	-0.020541 	0 9.77029 	-0.0184821 	0 9.76279 	-0.0189128 	0 9.75529 	-0.0193438 	0 9.74777 	-0.0197751 	0 9.64474 	-0.0230975 	0 9.72592 	-0.0210003 	4.55713e-22 9.71798 	-0.021438 	8.55291e-21 9.71004 	-0.021876 	1.66495e-20 9.70158 	-0.0223287 	2.48096e-20 9.59293 	-0.0256517 	4.58202e-20 9.67467 	-0.0236848 	1.87598e-19 9.67031 	-0.0240224 	1.96744e-19 9.66194 	-0.0244675 	1.99734e-19 9.64372 	-0.0251771 	1.87857e-19 9.53952 	-0.0281949 	4.5989e-20 9.61611 	-0.0265163 	2.51754e-20 9.6199 	-0.0266554 	1.61432e-20 9.61112 	-0.0271084 	9.14236e-21 9.58403 	-0.0280178 	6.57288e-21 9.48471 	-0.030727 	2.14919e-20 9.55588 	-0.0293345 	1.14042e-19 9.56696 	-0.0293296 	1.38023e-19 9.55779 	-0.0297922 	1.38933e-19 9.52285 	-0.0308441 	1.08218e-19 9.42873 	-0.0332488 	4.9073e-21 9.49433 	-0.0321378 	-1.05125e-19 9.51176 	-0.0320424 	-1.51842e-19 9.50223 	-0.0325155 	-1.63164e-19 9.46052 	-0.0336506 	-1.4092e-19 9.37179 	-0.0357527 	-6.96797e-20 9.43174 	-0.034922 	-1.93773e-19 9.45453 	-0.0347908 	-2.5282e-19 9.44466 	-0.0352747 	-2.54762e-19 9.39729 	-0.0364327 	-1.86839e-19 9.31406 	-0.0382358 	-5.21809e-20 9.3684 	-0.0376823 	-2.82966e-20 9.39556 	-0.0375697 	-1.10939e-20 9.38538 	-0.0380637 	-3.06511e-21 9.33347 	-0.0391852 	0 9.25575 	-0.0406953 	0 9.30457 	-0.0404013 	0 9.33513 	-0.0403528 	0 9.32466 	-0.0408566 	0 9.26931 	-0.0418914 	2.62269e-21 9.19705 	-0.0431271 	6.23148e-21 9.24054 	-0.0430747 	2.78352e-21 9.27358 	-0.0431316 	0 9.26284 	-0.043647 	0 9.20508 	-0.0445526 	3.02516e-21 9.13815 	-0.0455352 	6.63841e-21 9.17654 	-0.0457197 	3.18977e-21 9.21122 	-0.04593 	5.49665e-22 9.20024 	-0.046458 	7.87234e-21 9.14102 	-0.0471839 	2.70885e-20 9.07921 	-0.0479215 	4.69344e-20 9.11277 	-0.0483348 	1.80718e-19 9.14633 	-0.0487484 	3.14501e-19 9.13422 	-0.0492793 	3.15042e-19 9.07731 	-0.0497794 	1.81233e-19 9.02037 	-0.0502806 	4.74255e-20 9.04944 	-0.0509109 	2.78313e-20 9.07849 	-0.0515419 	8.23743e-21 9.06649 	-0.0520547 	6.23802e-22 9.01415 	-0.0523305 	4.08531e-21 8.9618 	-0.0526071 	7.54717e-21 8.98671 	-0.0534399 	4.25344e-21 9.01159 	-0.0542736 	9.60115e-22 8.99976 	-0.0547644 	8.00777e-22 8.9517 	-0.0548311 	-3.67292e-21 8.90362 	-0.0548982 	-8.14754e-21 8.92471 	-0.055917 	-5.41785e-20 8.94576 	-0.0569369 	-1.00212e-19 8.9342 	-0.0574032 	-1.01969e-19 8.89008 	-0.0572778 	-5.98711e-20 8.84595 	-0.0571527 	-1.77733e-20 8.86357 	-0.0583394 	8.85031e-20 8.88114 	-0.0595274 	1.94776e-19 8.86991 	-0.0599673 	2.04486e-19 8.8294 	-0.0596688 	1.16081e-19 8.7889 	-0.0593703 	2.76754e-20 8.80338 	-0.0607061 	1.57236e-20 8.81782 	-0.0620433 	3.76899e-21 8.80698 	-0.0624559 	-7.66238e-22 8.76976 	-0.0620039 	3.8741e-21 8.73256 	-0.0615516 	8.51507e-21 8.74424 	-0.0630169 	2.94455e-21 8.75586 	-0.0644838 	-2.63044e-21 8.74546 	-0.0648687 	-2.11184e-20 8.71124 	-0.0642835 	-7.43064e-20 8.67702 	-0.0636979 	-1.27496e-19 8.68619 	-0.0652738 	-2.67607e-19 8.69531 	-0.0668514 	-4.07712e-19 8.68541 	-0.0672089 	-3.90564e-19 8.65387 	-0.0665103 	-2.29785e-19 8.62235 	-0.0658113 	-6.90066e-20 8.62931 	-0.0674788 	6.27232e-20 8.63537 	-0.0690813 	1.87881e-19 8.6253 	-0.0693897 	1.85278e-19 8.59772 	-0.0686868 	9.66294e-20 8.56862 	-0.0678947 	4.29353e-22 8.57362 	-0.0696364 	-9.50503e-20 8.57589 	-0.0711204 	-1.75104e-19 8.56601 	-0.071427 	-1.85105e-19 8.54281 	-0.0708179 	-1.22734e-19 8.51588 	-0.0699511 	-4.00323e-20 8.51916 	-0.0717498 	-2.78365e-20 8.51834 	-0.0730814 	-1.58189e-20 8.50866 	-0.0733875 	-4.18628e-21 8.48917 	-0.0729076 	1.38805e-20 8.46418 	-0.0719852 	3.5567e-20 8.46595 	-0.0738268 	1.26474e-20 8.46265 	-0.074981 	-2.79578e-21 8.45315 	-0.0752881 	-9.0326e-21 8.4368 	-0.074964 	-4.40749e-21 8.41354 	-0.0740022 	1.11876e-20 8.414 	-0.0758719 	-6.04022e-21 8.40873 	-0.0768294 	-1.72723e-20 8.39941 	-0.0771382 	-2.42411e-20 8.3857 	-0.07699 	-3.68916e-20 8.36399 	-0.0760039 	-5.99483e-20 8.3633 	-0.0778874 	5.56527e-20 8.3565 	-0.0786359 	8.96821e-20 8.34734 	-0.0789482 	9.23551e-20 8.33587 	-0.0789907 	7.39923e-20 8.31555 	-0.0779975 	-2.5042e-20 8.31385 	-0.0798904 	7.25783e-20 8.30588 	-0.0804264 	8.92931e-20 8.29689 	-0.0807448 	9.30179e-20 8.2873 	-0.0809868 	9.17587e-20 8.26821 	-0.0799949 	1.04439e-20 8.26564 	-0.0818908 	-1.06332e-21 8.25682 	-0.0822154 	-7.19352e-22 8.24798 	-0.0825403 	-3.75416e-22 8.23912 	-0.0828654 	-3.15089e-23 8.22198 	-0.0819983 	1.91028e-20 8.21792 	-0.0836664 	0 8.20924 	-0.0839975 	0 8.20055 	-0.0843289 	0 8.19184 	-0.0846605 	0 8.17686 	-0.0840073 	1.60356e-20 8.17163 	-0.0854401 	0 8.16309 	-0.0857806 	0 8.15453 	-0.0861213 	0 8.14596 	-0.0864623 	0 8.13284 	-0.0860338 	0 8.12669 	-0.087236 	0 8.11829 	-0.0875891 	0 8.10986 	-0.0879424 	0 8.10142 	-0.088296 	0 8.0899 	-0.0880931 	-9.20678e-21 8.08305 	-0.0890727 	0 8.07476 	-0.0894405 	0 8.06647 	-0.0898086 	0 8.05815 	-0.090177 	0 8.048 	-0.0901956 	-1.19229e-20 8.04063 	-0.0909635 	0 8.03246 	-0.0913479 	0 8.02428 	-0.0917326 	0 8.01608 	-0.0921176 	0 8.00711 	-0.0923511 	-5.29974e-21 8.00093 	-0.0928411 	-7.5187e-21 7.99445 	-0.0931652 	-1.63707e-20 7.98796 	-0.0934895 	-2.52235e-20 7.98145 	-0.093814 	-3.40769e-20 7.97513 	-0.0941289 	-4.26674e-20 7.97346 	-0.0942101 	-4.47289e-20 7.9718 	-0.0942913 	-4.67903e-20 7.97013 	-0.0943725 	-4.88517e-20 7.96846 	-0.0944538 	-5.09131e-20 7.967 	-0.0944977 	-5.29758e-20 7.95877 	-0.094956 	-5.20007e-20 7.9506 	-0.0953811 	-5.13722e-20 7.94241 	-0.0958064 	-5.07413e-20 7.9342 	-0.096232 	-5.01081e-20 7.92717 	-0.0964389 	-5.15953e-20 7.91862 	-0.0970824 	-4.05009e-20 7.91055 	-0.0975285 	-2.93958e-20 7.90245 	-0.0979749 	-1.82894e-20 7.89434 	-0.0984216 	-7.18186e-21 7.88836 	-0.0984764 	0 7.8795 	-0.0992991 	-3.21128e-21 7.87151 	-0.0997676 	-8.36312e-21 7.8635 	-0.100236 	-1.35143e-20 7.85547 	-0.100706 	-1.86648e-20 7.85051 	-0.100617 	-2.37658e-20 7.84134 	-0.101614 	-5.36782e-20 7.83343 	-0.102106 	-7.46755e-20 7.82549 	-0.102599 	-9.56742e-20 7.81753 	-0.103092 	-1.16674e-19 7.81355 	-0.102869 	-1.11338e-19 7.80408 	-0.104034 	-8.87331e-20 7.79623 	-0.104552 	-7.70016e-20 7.78836 	-0.105069 	-6.52646e-20 7.78047 	-0.105587 	-5.35219e-20 7.77742 	-0.105238 	-7.38178e-20 7.76765 	-0.106568 	-8.57215e-20 7.75986 	-0.107111 	-6.60126e-20 7.75205 	-0.107655 	-4.6308e-20 7.74432 	-0.108181 	-2.63093e-20 7.74206 	-0.107731 	9.24874e-21 7.73219 	-0.109144 	1.40523e-20 7.72426 	-0.109792 	9.65037e-21 7.7165 	-0.110363 	4.31815e-21 7.70975 	-0.110751 	0 7.70742 	-0.110355 	0 7.69765 	-0.111773 	0 7.68937 	-0.1126 	0 7.68165 	-0.1132 	0 7.67585 	-0.113457 	0 7.67344 	-0.113115 	0 7.66376 	-0.114541 	0 7.65514 	-0.115542 	-1.00938e-20 7.64745 	-0.116172 	-2.89931e-20 7.64256 	-0.116306 	-4.79368e-20 7.64006 	-0.116018 	-6.69204e-20 7.63046 	-0.117454 	-4.65747e-20 7.6215 	-0.118625 	-2.46792e-20 7.61384 	-0.119285 	1.88517e-22 7.60981 	-0.119303 	1.03453e-20 7.60721 	-0.11907 	1.4739e-20 7.59769 	-0.120517 	4.9558e-20 7.5884 	-0.121854 	8.226e-20 7.58075 	-0.122546 	1.0266e-19 7.57754 	-0.122454 	9.03403e-20 7.57484 	-0.122276 	7.43736e-20 7.56538 	-0.123737 	4.89203e-20 7.55587 	-0.125198 	2.34582e-20 7.54853 	-0.12589 	8.90205e-22 7.54571 	-0.125766 	1.09084e-20 7.54289 	-0.125642 	2.09267e-20 7.53349 	-0.127118 	8.86385e-20 7.52403 	-0.128596 	1.56354e-19 7.51719 	-0.129313 	1.57004e-19 7.51425 	-0.129243 	8.98849e-20 7.51131 	-0.129173 	2.27639e-20 7.50195 	-0.130668 	1.35164e-20 7.49254 	-0.132162 	4.27264e-21 7.48617 	-0.132907 	4.50628e-21 7.4831 	-0.132892 	1.42896e-20 7.48002 	-0.132876 	2.40733e-20 7.4707 	-0.134389 	9.02791e-20 7.46132 	-0.135902 	1.56488e-19 7.45541 	-0.136677 	1.5717e-19 7.4522 	-0.136717 	9.15829e-20 7.44899 	-0.136756 	2.59937e-20 7.43969 	-0.13829 	1.70032e-20 7.43033 	-0.139823 	8.01644e-21 7.42484 	-0.140629 	0 7.42149 	-0.140725 	0 7.41814 	-0.14082 	0 7.40885 	-0.142374 	0 7.39974 	-0.143888 	0 7.3946 	-0.144698 	0 7.39093 	-0.144919 	0 7.38743 	-0.145071 	0 7.37814 	-0.146647 	0 7.36987 	-0.148034 	0 7.36464 	-0.148883 	0 7.36047 	-0.149304 	1.14665e-20 7.35681 	-0.149513 	2.85666e-20 7.34751 	-0.151112 	9.9013e-21 7.34005 	-0.152378 	4.31334e-21 7.33472 	-0.153268 	1.34985e-20 7.33004 	-0.153884 	2.47222e-20 7.32623 	-0.154151 	3.85285e-20 7.3169 	-0.155774 	1.31338e-19 7.31023 	-0.156925 	1.6436e-19 7.30478 	-0.157857 	1.69646e-19 7.29961 	-0.158664 	1.50514e-19 7.29563 	-0.15899 	3.71917e-20 7.28626 	-0.160638 	1.53045e-19 7.28034 	-0.161679 	1.53391e-19 7.27476 	-0.162654 	1.41044e-19 7.26916 	-0.163628 	1.28676e-19 7.26495 	-0.164033 	3.94327e-20 7.256 	-0.165626 	2.85688e-20 7.25034 	-0.166644 	2.90288e-20 7.24463 	-0.167661 	2.94935e-20 7.23889 	-0.168679 	2.99629e-20 7.23415 	-0.169283 	5.98589e-20 7.22598 	-0.17076 	7.44667e-20 7.22017 	-0.171821 	7.206e-20 7.21433 	-0.172881 	6.96386e-20 7.20844 	-0.173942 	6.72026e-20 7.20317 	-0.174743 	4.42195e-20 7.19575 	-0.176108 	1.74473e-20 7.18979 	-0.177212 	1.09955e-20 7.1838 	-0.178316 	4.55642e-21 7.17776 	-0.17942 	-1.87001e-21 7.17196 	-0.180414 	-1.06455e-21 7.16676 	-0.181387 	-2.24404e-22 7.16217 	-0.18225 	-1.85277e-22 7.15755 	-0.183113 	-1.4616e-22 7.15291 	-0.183976 	-1.07053e-22 7.14848 	-0.184797 	-6.98501e-23 7.14685 	-0.185089 	-5.51394e-23 7.14521 	-0.185381 	-4.04276e-23 7.14357 	-0.185674 	-2.57146e-23 7.14193 	-0.185966 	-1.10005e-23 7.14061 	-0.186224 	0 7.13401 	-0.187446 	-1.39642e-20 7.12755 	-0.188634 	-2.89953e-20 7.12105 	-0.189823 	-4.40208e-20 7.11451 	-0.191011 	-5.90409e-20 7.10951 	-0.192037 	-7.27396e-20 7.10198 	-0.193431 	-5.75675e-20 7.09534 	-0.194663 	-4.11472e-20 7.08866 	-0.195894 	-2.47211e-20 7.08193 	-0.197125 	-8.28941e-21 7.07803 	-0.198066 	3.22336e-21 7.06954 	-0.199632 	3.96638e-21 7.06272 	-0.200906 	1.91942e-20 7.05584 	-0.202179 	3.44162e-20 7.04892 	-0.203453 	4.96324e-20 7.04612 	-0.20431 	7.15392e-20 7.03665 	-0.206046 	4.79822e-20 7.02962 	-0.207362 	3.14394e-20 7.02255 	-0.208678 	1.48905e-20 7.01603 	-0.209934 	-6.55932e-23 7.01372 	-0.210768 	-3.7033e-21 7.00393 	-0.212559 	-6.00939e-20 6.99601 	-0.21403 	-7.75165e-20 6.98872 	-0.215388 	-8.10515e-20 6.98334 	-0.216554 	-6.52255e-20 6.9808 	-0.217437 	-2.07943e-20 6.9708 	-0.219261 	-6.57487e-20 6.96183 	-0.220908 	-9.3576e-20 6.95432 	-0.222306 	-9.73366e-20 6.95008 	-0.223382 	-6.57701e-20 6.94729 	-0.224314 	-1.83627e-20 6.93708 	-0.226171 	-6.58606e-20 6.92703 	-0.227992 	-1.09703e-19 6.91929 	-0.22943 	-1.13671e-19 6.91619 	-0.230416 	-6.07663e-20 6.91314 	-0.231395 	-6.92718e-21 6.90272 	-0.233284 	-3.8184e-21 6.89222 	-0.235173 	-7.11815e-22 6.88492 	-0.236627 	0 6.88164 	-0.237651 	0 6.87832 	-0.238676 	0 6.86766 	-0.240596 	0 6.85694 	-0.242516 	0 6.84993 	-0.244015 	0 6.84637 	-0.245083 	0 6.84277 	-0.246151 	0 6.83188 	-0.248102 	0 6.82091 	-0.250053 	0 6.81418 	-0.251596 	-2.78722e-21 6.81033 	-0.252706 	6.42657e-21 6.80645 	-0.253816 	1.56358e-20 6.7953 	-0.255797 	-4.8438e-20 6.78517 	-0.257676 	-9.6723e-20 6.77852 	-0.259225 	-9.35959e-20 6.7735 	-0.260514 	-5.20824e-20 6.76932 	-0.261664 	9.83578e-21 6.75791 	-0.263674 	-1.87729e-21 6.74905 	-0.265441 	-1.44508e-21 6.74212 	-0.267023 	8.23262e-21 6.73581 	-0.268501 	1.39102e-20 6.73133 	-0.269689 	8.55021e-21 6.71965 	-0.271726 	6.68635e-20 6.71207 	-0.273379 	7.27154e-20 6.70485 	-0.274993 	7.32824e-20 6.69758 	-0.276607 	7.38316e-20 6.69244 	-0.277884 	2.8649e-20 6.68166 	-0.279839 	3.22459e-20 6.6742 	-0.281483 	3.01512e-20 6.66669 	-0.283127 	2.80647e-20 6.65911 	-0.284771 	2.59863e-20 6.65262 	-0.28624 	2.27346e-20 6.64317 	-0.288072 	2.04061e-20 6.63541 	-0.289744 	1.18459e-20 6.62759 	-0.291415 	3.28759e-21 6.61971 	-0.293086 	-5.26878e-21 6.61183 	-0.294749 	-1.36994e-20 6.61131 	-0.294846 	-1.45561e-20 6.61089 	-0.294936 	-1.45558e-20 6.61047 	-0.295026 	-1.45554e-20 6.61004 	-0.295115 	-1.4555e-20 6.60962 	-0.295205 	-1.45545e-20 6.60151 	-0.296809 	-1.67311e-20 6.59334 	-0.298413 	-1.8903e-20 6.58511 	-0.300017 	-2.10701e-20 6.57682 	-0.301621 	-2.32326e-20 6.56964 	-0.303097 	-2.4309e-20 6.56011 	-0.304956 	-2.02445e-20 6.55114 	-0.306673 	-1.394e-20 6.54211 	-0.30839 	-7.63201e-21 6.53301 	-0.310106 	-1.32042e-21 6.52629 	-0.31156 	4.68364e-21 6.51568 	-0.313593 	0 6.50636 	-0.315331 	0 6.49696 	-0.317069 	0 6.48815 	-0.318736 	0 6.48173 	-0.320144 	0 6.47068 	-0.322209 	0 6.46031 	-0.324108 	0 6.45054 	-0.325865 	0 6.44271 	-0.32741 	0 6.43593 	-0.328839 	0 6.4245 	-0.330916 	0 6.41298 	-0.332994 	0 6.4031 	-0.334738 	4.6831e-22 6.396 	-0.336185 	5.69769e-21 6.38885 	-0.337631 	1.09307e-20 6.37703 	-0.33972 	6.65854e-21 6.36512 	-0.341808 	2.39048e-21 6.35547 	-0.343586 	1.84262e-21 6.348 	-0.345048 	4.81174e-21 6.34047 	-0.34651 	7.7855e-21 6.32825 	-0.348607 	-1.29574e-20 6.31598 	-0.350699 	-3.34957e-20 6.30673 	-0.352474 	-4.07153e-20 6.29868 	-0.353989 	-3.13018e-20 6.29076 	-0.355464 	-1.92445e-20 6.27813 	-0.357567 	-1.24954e-20 6.26697 	-0.35951 	-7.17852e-21 6.25733 	-0.361292 	-3.3182e-21 6.248 	-0.362995 	-1.56928e-21 6.23969 	-0.364479 	-5.75167e-21 6.22664 	-0.366586 	-6.25559e-22 6.21663 	-0.368375 	-4.70834e-21 6.20659 	-0.370161 	-8.89647e-21 6.19648 	-0.371946 	-1.30876e-20 6.18722 	-0.373544 	-1.99312e-20 6.1754 	-0.375481 	-1.84441e-20 6.1651 	-0.377256 	-2.41573e-20 6.15472 	-0.37903 	-2.98797e-20 6.14428 	-0.380804 	-3.56113e-20 6.13447 	-0.382455 	-4.09593e-20 6.13426 	-0.382492 	-4.11751e-20 6.13405 	-0.382529 	-4.1391e-20 6.13384 	-0.382566 	-4.16068e-20 6.13362 	-0.382603 	-4.18226e-20 6.13342 	-0.382637 	-4.12274e-20 6.12312 	-0.384431 	-3.22985e-20 6.11274 	-0.386221 	-2.32794e-20 6.10229 	-0.38801 	-1.42541e-20 6.09176 	-0.389799 	-5.22252e-21 6.08144 	-0.39142 	5.72611e-21 6.0711 	-0.393402 	2.02914e-20 6.06031 	-0.395188 	2.39194e-20 6.04945 	-0.396973 	2.75712e-20 6.03853 	-0.398742 	3.02052e-20 6.02805 	-0.400207 	1.19146e-20 6.01749 	-0.40228 	2.5758e-21 6.00647 	-0.404156 	3.72777e-21 5.99519 	-0.405934 	1.00671e-20 5.98413 	-0.407524 	2.55979e-20 5.97322 	-0.408982 	4.76714e-20 5.96225 	-0.411042 	8.32929e-20 5.95119 	-0.413101 	1.1892e-19 5.93956 	-0.414836 	1.24896e-19 5.9283 	-0.416285 	9.26959e-20 5.91696 	-0.417733 	6.04849e-20 5.90556 	-0.419777 	1.15788e-19 5.89407 	-0.421821 	1.71087e-19 5.88271 	-0.423573 	1.59024e-19 5.87101 	-0.42501 	8.1871e-20 5.85923 	-0.426446 	4.68825e-21 5.8474 	-0.428471 	-3.83809e-22 5.83561 	-0.43040