# vtk DataFile Version 2.0
track0
ASCII
DATASET POLYDATA
POINTS 10930 double
-0.0205 0.001 1e-05
-0.0202034 0.00100022 1e-05
-0.0199069 0.00100067 1e-05
-0.0196103 0.00100132 1e-05
-0.0193137 0.00100216 1e-05
-0.0190172 0.0010032 1e-05
-0.0187132 0.00100461 1e-05
-0.0184093 0.00100572 1e-05
-0.0181054 0.0010068 1e-05
-0.0178015 0.00100784 1e-05
-0.0174976 0.00100885 1e-05
-0.0172058 0.00101 1e-05
-0.016914 0.00101081 1e-05
-0.0166222 0.00101159 1e-05
-0.0163305 0.00101234 1e-05
-0.0160387 0.00101307 1e-05
-0.0157586 0.00101393 1e-05
-0.0154784 0.00101461 1e-05
-0.0151983 0.00101533 1e-05
-0.0149182 0.00101609 1e-05
-0.0146381 0.00101689 1e-05
-0.0143692 0.00101781 1e-05
-0.0141002 0.00101866 1e-05
-0.0138313 0.00101956 1e-05
-0.0135624 0.00102052 1e-05
-0.0132934 0.00102152 1e-05
-0.0130366 0.00102258 1e-05
-0.0127798 0.00102363 1e-05
-0.012523 0.00102472 1e-05
-0.0122662 0.00102584 1e-05
-0.0120515 0.00102682 1e-05
-0.0120417 0.00102686 1e-05
-0.0120319 0.00102691 1e-05
-0.0120221 0.00102695 1e-05
-0.0120123 0.001027 1e-05
-0.0120025 0.00102705 1e-05
-0.0117547 0.00102821 1e-05
-0.0115068 0.00102939 1e-05
-0.0112589 0.0010306 1e-05
-0.0110111 0.00103183 1e-05
-0.0107632 0.00103308 1e-05
-0.0105252 0.0010343 1e-05
-0.0102873 0.00103554 1e-05
-0.0100493 0.0010368 1e-05
-0.00981133 0.00103807 1e-05
-0.00957337 0.00103935 1e-05
-0.00934491 0.00104058 1e-05
-0.00911645 0.00104183 1e-05
-0.008888 0.00104309 1e-05
-0.00865954 0.00104436 1e-05
-0.00843108 0.00104563 1e-05
-0.00821175 0.00104684 1e-05
-0.00799242 0.00104807 1e-05
-0.00777309 0.0010493 1e-05
-0.00755376 0.00105054 1e-05
-0.00733443 0.00105177 1e-05
-0.00712387 0.00105294 1e-05
-0.0069133 0.00105413 1e-05
-0.00670273 0.00105532 1e-05
-0.00649217 0.0010565 1e-05
-0.0062816 0.00105769 1e-05
-0.00607944 0.0010588 1e-05
-0.00587729 0.00105993 1e-05
-0.00567514 0.00106106 1e-05
-0.00547298 0.00106218 1e-05
-0.00527083 0.00106331 1e-05
-0.00507675 0.00106436 1e-05
-0.00488267 0.00106543 1e-05
-0.0046886 0.00106649 1e-05
-0.00449452 0.00106755 1e-05
-0.00430044 0.0010686 1e-05
-0.00411412 0.00106959 1e-05
-0.0039278 0.00107058 1e-05
-0.00374147 0.00107157 1e-05
-0.00355515 0.00107256 1e-05
-0.00336883 0.00107353 1e-05
-0.00318995 0.00107445 1e-05
-0.00301107 0.00107537 1e-05
-0.00283219 0.00107629 1e-05
-0.00265331 0.00107719 1e-05
-0.00247443 0.00107809 1e-05
-0.0023027 0.00107893 1e-05
-0.00213097 0.00107977 1e-05
-0.00195924 0.0010806 1e-05
-0.0017875 0.00108142 1e-05
-0.00161577 0.00108223 1e-05
-0.0014509 0.00108298 1e-05
-0.00128603 0.00108373 1e-05
-0.00112116 0.00108446 1e-05
-0.000956289 0.00108518 1e-05
-0.000791418 0.00108588 1e-05
-0.000633135 0.00108653 1e-05
-0.000474851 0.00108716 1e-05
-0.000316567 0.00108777 1e-05
-0.000158283 0.00108836 1e-05
0 0.00108892 1e-05
0.000105677 0.00108927 1e-05
0.000211355 0.00108962 1e-05
0.000317032 0.00108995 1e-05
0.00042271 0.00109026 1e-05
0.000528387 0.00109057 1e-05
0.000634886 0.00109085 1e-05
0.000741385 0.00109113 1e-05
0.000847885 0.0010914 1e-05
0.000954384 0.00109165 1e-05
0.00106088 0.0010919 1e-05
0.00116821 0.00109212 1e-05
0.00127554 0.00109235 1e-05
0.00138286 0.00109256 1e-05
0.00149019 0.00109276 1e-05
0.00159752 0.00109295 1e-05
0.00170568 0.00109312 1e-05
0.00181384 0.00109328 1e-05
0.001922 0.00109344 1e-05
0.00203016 0.00109358 1e-05
0.00213833 0.00109371 1e-05
0.00224733 0.00109383 1e-05
0.00235633 0.00109394 1e-05
0.00246533 0.00109404 1e-05
0.00257434 0.00109414 1e-05
0.00268334 0.00109422 1e-05
0.00279319 0.00109428 1e-05
0.00290304 0.00109435 1e-05
0.00301289 0.00109441 1e-05
0.00312274 0.00109447 1e-05
0.00323259 0.00109451 1e-05
0.00334329 0.00109454 1e-05
0.003454 0.00109457 1e-05
0.0035647 0.0010946 1e-05
0.0036754 0.00109462 1e-05
0.00378611 0.00109464 1e-05
0.00389767 0.00109464 1e-05
0.00400924 0.00109464 1e-05
0.0041208 0.00109464 1e-05
0.00423237 0.00109463 1e-05
0.00434393 0.00109461 1e-05
0.00445636 0.00109459 1e-05
0.00456879 0.00109456 1e-05
0.00468123 0.00109453 1e-05
0.00479366 0.0010945 1e-05
0.00490609 0.00109446 1e-05
0.0050194 0.0010944 1e-05
0.0051327 0.00109435 1e-05
0.00524601 0.00109429 1e-05
0.00535931 0.00109423 1e-05
0.00547262 0.00109417 1e-05
0.00554954 0.00109412 1e-05
0.00562646 0.00109406 1e-05
0.00570338 0.00109401 1e-05
0.0057803 0.00109395 1e-05
0.00585563 0.0010939 1e-05
0.00589322 0.00109387 1e-05
0.0059308 0.00109384 1e-05
0.00596839 0.00109381 1e-05
0.00600597 0.00109378 1e-05
0.00604356 0.00109374 1e-05
0.00615863 0.00109364 1e-05
0.00627371 0.00109354 1e-05
0.00638878 0.00109343 1e-05
0.00650386 0.00109332 1e-05
0.00661893 0.0010932 1e-05
0.0067349 0.00109308 1e-05
0.00685087 0.00109295 1e-05
0.00696684 0.00109282 1e-05
0.00708281 0.00109268 1e-05
0.00719878 0.00109254 1e-05
0.00731565 0.00109238 1e-05
0.00743252 0.00109223 1e-05
0.00754939 0.00109207 1e-05
0.00766626 0.00109191 1e-05
0.00778313 0.00109174 1e-05
0.00790091 0.00109156 1e-05
0.00801869 0.00109138 1e-05
0.00813647 0.0010912 1e-05
0.00825425 0.00109101 1e-05
0.00837203 0.00109082 1e-05
0.00849073 0.0010906 1e-05
0.00860942 0.00109039 1e-05
0.00872812 0.00109018 1e-05
0.00884682 0.00108997 1e-05
0.00896551 0.00108975 1e-05
0.00908513 0.0010895 1e-05
0.00920475 0.00108926 1e-05
0.00932437 0.00108903 1e-05
0.00944398 0.00108878 1e-05
0.0095636 0.00108854 1e-05
0.00968415 0.00108825 1e-05
0.0098047 0.00108799 1e-05
0.00992525 0.00108772 1e-05
0.0100458 0.00108745 1e-05
0.0101663 0.00108717 1e-05
0.0102878 0.00108685 1e-05
0.0104093 0.00108656 1e-05
0.0105308 0.00108626 1e-05
0.0106523 0.00108596 1e-05
0.0107738 0.00108565 1e-05
0.0108962 0.00108529 1e-05
0.0110186 0.00108496 1e-05
0.0111411 0.00108463 1e-05
0.0112635 0.00108429 1e-05
0.0113859 0.00108395 1e-05
0.0115093 0.00108356 1e-05
0.0116327 0.00108319 1e-05
0.0117561 0.00108283 1e-05
0.0118795 0.00108245 1e-05
0.0120028 0.00108208 1e-05
0.0121272 0.00108164 1e-05
0.0122515 0.00108124 1e-05
0.0123759 0.00108083 1e-05
0.0125002 0.00108042 1e-05
0.0126245 0.00108 1e-05
0.0127498 0.00107952 1e-05
0.0128752 0.00107908 1e-05
0.0130005 0.00107863 1e-05
0.0131258 0.00107818 1e-05
0.0132511 0.00107771 1e-05
0.0133774 0.00107719 1e-05
0.0135036 0.0010767 1e-05
0.0136299 0.00107621 1e-05
0.0137562 0.00107571 1e-05
0.0138825 0.00107519 1e-05
0.0140098 0.00107463 1e-05
0.014137 0.00107408 1e-05
0.0142643 0.00107354 1e-05
0.0143915 0.001073 1e-05
0.0145188 0.00107243 1e-05
0.0146471 0.00107181 1e-05
0.0147753 0.00107122 1e-05
0.0149036 0.00107063 1e-05
0.0150318 0.00107003 1e-05
0.0151601 0.0010694 1e-05
0.0152893 0.00106874 1e-05
0.0154186 0.00106809 1e-05
0.0155478 0.00106744 1e-05
0.0156771 0.00106678 1e-05
0.0158063 0.0010661 1e-05
0.0159366 0.00106538 1e-05
0.0160668 0.00106467 1e-05
0.0161971 0.00106397 1e-05
0.0163274 0.00106325 1e-05
0.0164576 0.00106251 1e-05
0.0165889 0.00106173 1e-05
0.0167201 0.00106096 1e-05
0.0168514 0.00106019 1e-05
0.0169827 0.00105941 1e-05
0.0171139 0.0010586 1e-05
0.0172462 0.00105776 1e-05
0.0173785 0.00105692 1e-05
0.0175108 0.00105608 1e-05
0.0176431 0.00105523 1e-05
0.0177754 0.00105436 1e-05
0.0179087 0.00105345 1e-05
0.018042 0.00105254 1e-05
0.0181753 0.00105163 1e-05
0.0183087 0.0010507 1e-05
0.018442 0.00104975 1e-05
0.0185763 0.00104878 1e-05
0.0187107 0.00104779 1e-05
0.018845 0.0010468 1e-05
0.0189794 0.00104579 1e-05
0.0191137 0.00104477 1e-05
0.0192491 0.00104372 1e-05
0.0193845 0.00104265 1e-05
0.0195199 0.00104158 1e-05
0.0196553 0.00104048 1e-05
0.0197907 0.00103938 1e-05
0.0199272 0.00103825 1e-05
0.0200636 0.00103711 1e-05
0.0202001 0.00103594 1e-05
0.0203365 0.00103476 1e-05
0.020473 0.00103357 1e-05
0.0206105 0.00103236 1e-05
0.020748 0.00103113 1e-05
0.0208855 0.00102987 1e-05
0.021023 0.00102859 1e-05
0.0211606 0.00102731 1e-05
0.0212991 0.00102602 1e-05
0.0214377 0.0010247 1e-05
0.0215763 0.00102334 1e-05
0.0217149 0.00102197 1e-05
0.0218535 0.0010206 1e-05
0.0219931 0.00101921 1e-05
0.0221328 0.00101779 1e-05
0.0222724 0.00101634 1e-05
0.0224121 0.00101487 1e-05
0.0225517 0.0010134 1e-05
0.0226925 0.00101191 1e-05
0.0228332 0.00101039 1e-05
0.022974 0.00100884 1e-05
0.0231147 0.00100727 1e-05
0.0232555 0.00100569 1e-05
0.0233973 0.00100411 1e-05
0.0235391 0.00100248 1e-05
0.023681 0.00100082 1e-05
0.0238228 0.000999145 1e-05
0.0239647 0.000997464 1e-05
0.0241076 0.000995773 1e-05
0.0242505 0.000994038 1e-05
0.0243935 0.00099227 1e-05
0.0245364 0.000990484 1e-05
0.0246794 0.000988691 1e-05
0.0248234 0.000986889 1e-05
0.0249675 0.00098504 1e-05
0.0251115 0.00098316 1e-05
0.0252556 0.000981262 1e-05
0.0253996 0.000979353 1e-05
0.0255448 0.000977432 1e-05
0.02569 0.000975463 1e-05
0.0258351 0.000973466 1e-05
0.0259803 0.000971449 1e-05
0.0261255 0.000969417 1e-05
0.0262718 0.000967374 1e-05
0.0264181 0.000965279 1e-05
0.0265644 0.000963161 1e-05
0.0267107 0.000961022 1e-05
0.026857 0.000958864 1e-05
0.0270044 0.000956691 1e-05
0.0271519 0.000954469 1e-05
0.0272993 0.000952225 1e-05
0.0274467 0.00094996 1e-05
0.0275942 0.000947673 1e-05
0.0277428 0.000945365 1e-05
0.0278914 0.000943012 1e-05
0.0280399 0.000940636 1e-05
0.0281885 0.000938237 1e-05
0.0283371 0.000935815 1e-05
0.0284869 0.000933367 1e-05
0.0286366 0.000930878 1e-05
0.0287863 0.000928366 1e-05
0.0289361 0.00092583 1e-05
0.0290858 0.00092327 1e-05
0.0292367 0.000920677 1e-05
0.0293876 0.000918048 1e-05
0.0295385 0.000915394 1e-05
0.0296894 0.000912715 1e-05
0.0298403 0.000910011 1e-05
0.0299804 0.000907481 1e-05
0.0301205 0.000904924 1e-05
0.0302606 0.000902345 1e-05
0.0304007 0.000899744 1e-05
0.0305317 0.000897291 1e-05
0.0305455 0.000897031 1e-05
0.0305593 0.00089677 1e-05
0.0305731 0.000896508 1e-05
0.0305869 0.000896247 1e-05
0.0306007 0.000895985 1e-05
0.030754 0.00089308 1e-05
0.0309072 0.000890147 1e-05
0.0310605 0.000887187 1e-05
0.0312138 0.000884199 1e-05
0.031367 0.000881183 1e-05
0.0315215 0.000878123 1e-05
0.0316759 0.000875027 1e-05
0.0318304 0.000871903 1e-05
0.0319848 0.00086875 1e-05
0.0321393 0.000865568 1e-05
0.0322949 0.000862345 1e-05
0.0324506 0.00085908 1e-05
0.0326062 0.000855784 1e-05
[...]
POINT_DATA 10930
 FIELD attributes 1
U 3 10930 float
10.0004 	0.0075752 	0 10.0023 	0.0151261 	0 10.0042 	0.0217839 	0 10.0061 	0.0283966 	0 10.008 	0.0349644 	0 10.0143 	0.0464145 	0 10.016 	0.0367855 	0 10.0208 	0.0355853 	0 10.0255 	0.0343881 	0 10.0302 	0.0331939 	0 10.0387 	0.0395939 	0 10.0407 	0.0278451 	0 10.0459 	0.0268844 	0 10.0511 	0.0259208 	0 10.0563 	0.0249545 	0 10.0639 	0.0309937 	0 10.0663 	0.0245674 	0 10.0709 	0.0259129 	0 10.0754 	0.0272642 	0 10.0799 	0.0286214 	0 10.0856 	0.0344991 	0 10.0886 	0.0319591 	0 10.0925 	0.0338948 	0 10.0964 	0.0358383 	0 10.1003 	0.0377897 	0 10.1044 	0.0416649 	0 10.1076 	0.0413361 	0 10.1109 	0.042826 	0 10.1142 	0.044321 	0 10.1175 	0.0458211 	0 10.1203 	0.0470795 	0 10.1204 	0.047137 	0 10.1205 	0.0471945 	0 10.1207 	0.047252 	0 10.1208 	0.0473096 	0 10.1209 	0.0473469 	0 10.1235 	0.0483525 	0 10.1261 	0.0493458 	0 10.1286 	0.0503417 	0 10.1312 	0.0513403 	0 10.134 	0.0518572 	0 10.1356 	0.0528364 	0 10.1374 	0.05347 	0 10.1392 	0.0541048 	0 10.141 	0.0547409 	0 10.1433 	0.0545652 	0 10.1442 	0.0555098 	0 10.1454 	0.0558761 	0 10.1467 	0.0562429 	0 10.1479 	0.0566104 	0 10.1497 	0.0559718 	0 10.1502 	0.0568496 	0 10.1509 	0.0570082 	0 10.1517 	0.0571669 	0 10.1524 	0.0573258 	0 10.1538 	0.0563936 	0 10.1542 	0.0571816 	0 10.1546 	0.0571816 	0 10.1549 	0.0571815 	0 10.1553 	0.0571814 	0 10.1561 	0.0560811 	0 10.1566 	0.0567665 	0 10.1567 	0.0566431 	0 10.1568 	0.0565197 	0 10.1568 	0.0563962 	0 10.1569 	0.0552071 	0 10.1579 	0.0557783 	0 10.1578 	0.055551 	0 10.1576 	0.0553237 	0 10.1575 	0.0550962 	0 10.1567 	0.0538608 	0 10.1584 	0.054305 	0 10.1581 	0.0539737 	0 10.1578 	0.0536423 	0 10.1575 	0.0533107 	0 10.1558 	0.0520319 	0 10.1585 	0.052324 	0 10.158 	0.0518727 	0 10.1576 	0.0514213 	0 10.1572 	0.0509697 	0 10.1545 	0.0496307 	0 10.1582 	0.0497316 	0 10.1578 	0.0491048 	0 10.1573 	0.048478 	0 10.1569 	0.047851 	0 10.153 	0.0463726 	0 10.158 	0.0461508 	0 10.1575 	0.0451723 	0 10.1569 	0.0441937 	0 10.1564 	0.0432149 	0 10.1512 	0.0414133 	0 10.1573 	0.0406202 	1.60195e-21 10.1567 	0.0390899 	8.23887e-21 10.156 	0.0375594 	1.48778e-20 10.1553 	0.0360287 	2.15188e-20 10.1487 	0.0339709 	1.91705e-20 10.1552 	0.0332284 	1.17025e-19 10.1542 	0.0318003 	1.07785e-19 10.1531 	0.0303721 	9.85229e-20 10.1521 	0.0289436 	8.92387e-20 10.1447 	0.0271398 	-1.90486e-20 10.1508 	0.0266702 	-5.04236e-20 10.1495 	0.025504 	-5.62758e-20 10.1482 	0.0243376 	-6.21199e-20 10.1469 	0.023171 	-6.79558e-20 10.1394 	0.0215316 	-2.99925e-20 10.1451 	0.021245 	-2.58817e-20 10.1437 	0.0200422 	-1.82467e-20 10.1422 	0.018839 	-1.06129e-20 10.1408 	0.0176355 	-2.98038e-21 10.1335 	0.0158362 	7.83698e-21 10.1388 	0.0157766 	-9.85674e-21 10.1373 	0.0146042 	-3.39913e-20 10.1358 	0.0134313 	-5.81296e-20 10.1342 	0.012258 	-8.22716e-20 10.1272 	0.0103031 	-1.14495e-19 10.1319 	0.010542 	-1.49688e-19 10.1302 	0.0096074 	-1.3352e-19 10.1285 	0.0086723 	-1.1734e-19 10.1269 	0.00773672 	-1.01149e-19 10.1201 	0.00586734 	-4.04494e-20 10.124 	0.00629623 	2.69938e-20 10.1222 	0.00561218 	4.40444e-20 10.1203 	0.00492775 	6.10841e-20 10.1184 	0.00424294 	7.81127e-20 10.1121 	0.00261446 	4.78385e-20 10.1151 	0.00301391 	-2.95559e-20 10.1131 	0.00246661 	-3.67317e-20 10.1111 	0.001919 	-4.38934e-20 10.109 	0.00137108 	-5.1041e-20 10.1033 	2.42944e-05 	-7.0748e-22 10.1053 	0.000243954 	4.37626e-20 10.1031 	-0.000249478 	3.14699e-20 10.1008 	-0.000743171 	1.91646e-20 10.0986 	-0.00123713 	6.84654e-21 10.0935 	-0.00229735 	-4.08716e-20 10.0943 	-0.00229439 	-9.06419e-20 10.0918 	-0.00275928 	-1.18101e-19 10.0893 	-0.00322439 	-1.45555e-19 10.0868 	-0.00368972 	-1.73005e-19 10.0824 	-0.00447593 	-1.82176e-19 10.0819 	-0.00466532 	-1.82675e-19 10.0791 	-0.00510815 	-1.66936e-19 10.0763 	-0.00555115 	-1.51195e-19 10.0735 	-0.00599434 	-1.35449e-19 10.0699 	-0.00654842 	-1.13824e-19 10.0688 	-0.00674844 	-9.97217e-20 10.0667 	-0.0070349 	-8.42943e-20 10.0646 	-0.00732143 	-6.88676e-20 10.0625 	-0.00760803 	-5.34415e-20 10.0604 	-0.0078888 	-3.83336e-20 10.0594 	-0.00802982 	-3.05288e-20 10.0583 	-0.00817086 	-2.27238e-20 10.0573 	-0.00831192 	-1.49186e-20 10.0563 	-0.00845299 	-7.11333e-21 10.0522 	-0.0086607 	-1.44206e-22 10.0516 	-0.00899822 	0 10.0482 	-0.009412 	0 10.0447 	-0.00982593 	0 10.0412 	-0.01024 	0 10.0247 	-0.0110183 	-5.8734e-22 10.0333 	-0.0110357 	-1.9581e-20 10.0295 	-0.011441 	-4.19033e-20 10.0256 	-0.0118464 	-6.42243e-20 10.0217 	-0.0122519 	-8.65439e-20 9.99426 	-0.0134254 	-1.08603e-19 10.0126 	-0.0130474 	-1.20063e-19 10.0083 	-0.0134498 	-1.22489e-19 10.004 	-0.0138524 	-1.24916e-19 9.99975 	-0.0142551 	-1.27344e-19 9.96069 	-0.0158866 	-1.21105e-19 9.98923 	-0.0150807 	-1.25405e-19 9.98447 	-0.0154811 	-9.0402e-20 9.97971 	-0.0158817 	-5.54058e-20 9.97495 	-0.0162823 	-2.04168e-20 9.92396 	-0.0183874 	5.26425e-20 9.96283 	-0.0171573 	5.2999e-20 9.95758 	-0.0175554 	5.44491e-20 9.95234 	-0.0179536 	5.58976e-20 9.94709 	-0.0183519 	5.73444e-20 9.88408 	-0.0209116 	6.50583e-20 9.9332 	-0.0192896 	5.0323e-20 9.92745 	-0.0196863 	3.55891e-20 9.92169 	-0.0200831 	2.08544e-20 9.91594 	-0.0204801 	6.11872e-21 9.84115 	-0.0234508 	-2.77142e-21 9.90017 	-0.0214908 	-5.46402e-21 9.8939 	-0.0218887 	-1.93709e-20 9.88763 	-0.0222868 	-3.32769e-20 9.88135 	-0.022685 	-4.7182e-20 9.79531 	-0.0260061 	-6.11226e-20 9.86361 	-0.0237745 	-5.35265e-20 9.85681 	-0.0241774 	-6.2574e-20 9.85 	-0.0245805 	-7.16191e-20 9.84319 	-0.0249838 	-8.06618e-20 9.74668 	-0.0285835 	-1.12798e-19 9.8234 	-0.0261554 	-2.33592e-19 9.81606 	-0.0265671 	-2.22514e-19 9.80871 	-0.026979 	-2.11447e-19 9.80136 	-0.0273912 	-2.0039e-19 9.69546 	-0.0311885 	-5.28527e-20 9.77951 	-0.0286425 	-2.97062e-20 9.77164 	-0.0290674 	-1.9865e-20 9.76375 	-0.0294926 	-1.00231e-20 9.75586 	-0.0299181 	-1.8058e-22 9.64182 	-0.0338315 	0 9.72977 	-0.0313175 	0 9.72353 	-0.0316955 	0 9.71511 	-0.0321404 	0 9.69792 	-0.0328593 	0 9.58596 	-0.0365337 	0 9.66876 	-0.0343506 	0 9.67186 	-0.0344721 	7.93165e-21 9.66292 	-0.0349416 	1.70592e-20 9.63533 	-0.0359577 	2.90126e-20 9.5281 	-0.0393067 	5.30334e-20 9.60522 	-0.0374778 	2.14908e-19 9.61672 	-0.0374117 	2.56914e-19 9.60727 	-0.0379087 	2.60689e-19 9.57038 	-0.0391503 	2.15291e-19 9.46845 	-0.0421569 	5.3345e-20 9.53949 	-0.0406906 	2.95815e-20 9.55831 	-0.0405101 	1.59575e-20 9.54837 	-0.0410382 	7.91458e-21 9.50343 	-0.0424313 	9.99989e-21 9.40723 	-0.045092 	2.69178e-20 9.47194 	-0.0439888 	1.32622e-19 9.4969 	-0.0437689 	1.83149e-19 9.48648 	-0.0443356 	1.84618e-19 9.43485 	-0.0458092 	1.24397e-19 9.34468 	-0.0481312 	6.5578e-21 9.40291 	-0.0473932 	-1.18766e-19 9.43276 	-0.047209 	-1.97881e-19 9.42189 	-0.0478199 	-2.10775e-19 9.36498 	-0.0493018 	-1.64266e-19 9.28105 	-0.0512956 	-8.29757e-20 9.33285 	-0.0509 	-2.24533e-19 9.36638 	-0.0508094 	-3.25874e-19 9.3551 	-0.0514683 	-3.28674e-19 9.29428 	-0.0528974 	-2.14816e-19 9.21661 	-0.0545899 	-6.1395e-20 9.26211 	-0.0545268 	-3.43115e-20 9.29815 	-0.0545919 	-1.02209e-20 9.28648 	-0.0553044 	-1.21244e-21 9.22309 	-0.0566177 	0 9.15159 	-0.0580265 	0 9.19105 	-0.0583018 	0 9.22854 	-0.058596 	0 9.2165 	-0.0593646 	0 9.15173 	-0.060488 	3.9912e-21 9.0862 	-0.0616183 	8.03664e-21 9.11995 	-0.0622315 	4.19627e-21 9.15368 	-0.0628452 	3.56163e-22 9.14031 	-0.063653 	4.50366e-22 9.08051 	-0.0645085 	4.50103e-21 9.02066 	-0.0653657 	8.55256e-21 9.04908 	-0.0663058 	4.71251e-21 9.07749 	-0.0672469 	8.72962e-22 9.06417 	-0.0680701 	9.63408e-21 9.00967 	-0.0686638 	3.20231e-20 8.95513 	-0.0692589 	5.44132e-20 8.97869 	-0.0705058 	2.05951e-19 9.0022 	-0.0717542 	3.57491e-19 8.98905 	-0.0725883 	3.58202e-19 8.93944 	-0.0729448 	2.06696e-19 8.8898 	-0.0733023 	5.51891e-20 8.90894 	-0.0748404 	3.31477e-20 8.92803 	-0.0763803 	1.11077e-20 8.91516 	-0.0772195 	1.9447e-21 8.87 	-0.0773533 	5.80802e-21 8.82482 	-0.0774878 	9.67172e-21 8.84001 	-0.0792803 	6.02875e-21 8.85514 	-0.081075 	2.38687e-21 8.84263 	-0.0819164 	-4.85403e-21 8.80147 	-0.0818658 	-9.60684e-21 8.7603 	-0.0818156 	-1.43607e-20 8.77199 	-0.0838463 	-6.64767e-20 8.78362 	-0.0858794 	-1.18598e-19 8.77157 	-0.086723 	-1.22659e-19 8.73397 	-0.0865086 	-7.50644e-20 8.69636 	-0.0862943 	-2.74696e-20 8.705 	-0.0885223 	9.15286e-20 8.71355 	-0.0907529 	2.10518e-19 8.70205 	-0.0915946 	2.2442e-19 8.66757 	-0.0912515 	1.25106e-19 8.63309 	-0.0909085 	2.57909e-20 8.63906 	-0.0933041 	1.20307e-20 8.64351 	-0.095576 	-1.1768e-21 8.63168 	-0.0964018 	-7.99102e-21 8.60231 	-0.0961264 	-4.02182e-21 8.57058 	-0.0957019 	1.40711e-21 8.57424 	-0.0982689 	-5.32987e-21 8.57426 	-0.100438 	-1.37218e-20 8.56258 	-0.101299 	-2.75012e-20 8.53823 	-0.101173 	-7.4041e-20 8.50886 	-0.100655 	-1.33566e-19 8.51054 	-0.1033 	-2.89345e-19 8.50702 	-0.105256 	-3.73641e-19 8.4955 	-0.106146 	-3.47212e-19 8.47534 	-0.106257 	-2.37523e-19 8.44801 	-0.105721 	-5.87252e-20 8.44796 	-0.108434 	8.86909e-20 8.44163 	-0.110159 	1.52495e-19 8.43026 	-0.11109 	1.49129e-19 8.41361 	-0.111483 	1.0742e-19 8.38807 	-0.110964 	8.28734e-22 8.38656 	-0.11378 	-1.0464e-19 8.37804 	-0.115262 	-1.41486e-19 8.36679 	-0.116228 	-1.51788e-19 8.35307 	-0.116905 	-1.42656e-19 8.32904 	-0.116354 	-5.11597e-20 8.32631 	-0.119205 	-3.81359e-20 8.3161 	-0.120398 	-2.53808e-20 8.30495 	-0.121393 	-1.26607e-20 8.2937 	-0.122381 	1.0671e-22 8.27094 	-0.121852 	2.40845e-20 8.26668 	-0.124604 	-4.60381e-22 8.25564 	-0.125644 	-7.23531e-21 8.24456 	-0.126684 	-1.40117e-20 8.23343 	-0.127725 	-2.07896e-20 8.21371 	-0.127538 	-7.97808e-21 8.2075 	-0.130006 	-2.47249e-20 8.19648 	-0.131077 	-3.21855e-20 8.18542 	-0.13215 	-3.9651e-20 8.1743 	-0.133223 	-4.71212e-20 8.15723 	-0.133352 	-6.54082e-20 8.14942 	-0.135459 	6.46548e-21 8.13841 	-0.136549 	8.16064e-21 8.12736 	-0.137641 	9.82584e-21 8.11626 	-0.138733 	1.14609e-20 8.10147 	-0.139219 	-3.15944e-20 8.09234 	-0.140997 	9.59041e-21 8.08133 	-0.142136 	1.20651e-20 8.07027 	-0.143277 	1.4512e-20 8.05915 	-0.144418 	1.69309e-20 8.04637 	-0.145283 	1.50561e-21 8.03699 	-0.146678 	-6.95311e-22 8.02679 	-0.147767 	-5.38963e-22 8.01655 	-0.148858 	-3.82656e-22 8.00626 	-0.149949 	-2.26392e-22 7.9966 	-0.150969 	-8.03975e-23 7.99555 	-0.151078 	-6.36066e-23 7.9945 	-0.151186 	-4.68152e-23 7.99345 	-0.151294 	-3.00234e-23 7.9924 	-0.151402 	-1.32311e-23 7.99145 	-0.151483 	0 7.98002 	-0.152716 	0 7.96856 	-0.153925 	0 7.95705 	-0.155134 	0 7.94548 	-0.156344 	0 7.93512 	-0.157232 	0 7.92343 	-0.158784 	0 7.91189 	-0.160031 	0 7.90029 	-0.161279 	0 7.88863 	-0.162528 	0 7.87929 	-0.163169 	0 7.86733 	-0.165036 	0 7.85566 	-0.16632 	0 7.84394 	-0.167604 	0 7.83215 	-0.16889 	0 7.82372 	-0.169285 	0 7.81146 	-0.171453 	0 7.79966 	-0.172756 	0 7.78779 	-0.17406 	0 7.77587 	-0.175365 	0 7.76836 	-0.175507 	0 7.75591 	-0.177972 	0 7.74395 	-0.179326 	0 7.73194 	-0.180672 	0 7.72056 	-0.181833 	0 7.71308 	-0.181947 	0 7.70049 	-0.184421 	0 7.68819 	-0.186096 	-7.32327e-21 7.67595 	-0.18747 	-1.74047e-20 7.66543 	-0.188366 	-2.75012e-20 7.65757 	-0.188531 	-3.76245e-20 7.64477 	-0.190989 	-2.64362e-20 7.63211 	-0.192958 	-1.97884e-20 7.61967 	-0.194329 	-1.86812e-20 7.61 	-0.194939 	-2.48657e-20 7.60185 	-0.195131 	-3.50447e-20 7.58894 	-0.197573 	-2.37536e-20 7.57601 	-0.199844 	-1.24489e-20 7.56334 	-0.201244 	-1.10184e-21 7.5544 	-0.201622 	0 7.54584 	-0.201891 	0 7.5327 	-0.204328 	0 7.51946 	-0.206767 	0 7.50714 	-0.20814 	-4.15228e-21 7.49821 	-0.208465 	-8.95571e-21 7.48925 	-0.208791 	-1.37589e-20 7.47576 	-0.211207 	-4.87346e-20 7.46216 	-0.213625 	-8.37067e-20 7.45052 	-0.215004 	-9.39726e-20 7.44133 	-0.215339 	-7.67169e-20 7.43211 	-0.215674 	-5.94564e-20 7.4184 	-0.218059 	-3.34658e-20 7.40459 	-0.220446 	-7.45985e-21 7.3936 	-0.221839 	-1.06204e-20 7.38401 	-0.222201 	-3.44303e-20 7.3744 	-0.222563 	-5.82415e-20 7.36035 	-0.224926 	-7.13102e-20 7.34621 	-0.22729 	-8.43752e-20 7.33585 	-0.228635 	-8.33235e-20 7.3259 	-0.229077 	-5.31969e-20 7.31596 	-0.229455 	-2.10033e-20 7.3016 	-0.231784 	-1.74527e-20 7.28825 	-0.233824 	-1.23639e-20 7.27755 	-0.235159 	-3.51956e-21 7.26709 	-0.235922 	0 7.25679 	-0.236308 	0 7.24209 	-0.238606 	0 7.22954 	-0.240324 	0 7.21847 	-0.241639 	0 7.20748 	-0.24271 	0 7.19681 	-0.243085 	0 7.18177 	-0.245338 	0 7.17001 	-0.246719 	0 7.15858 	-0.248 	0 7.14709 	-0.249281 	0 7.13603 	-0.249719 	-1.42673e-20 7.12143 	-0.251718 	1.97834e-23 7.10969 	-0.252948 	1.14721e-22 7.09789 	-0.254178 	2.09694e-22 7.08604 	-0.25541 	3.04701e-22 7.07442 	-0.256137 	2.10931e-21 7.06065 	-0.257761 	1.45751e-20 7.04855 	-0.258929 	1.23625e-20 7.03641 	-0.260098 	1.01374e-20 7.02421 	-0.261267 	7.89969e-21 7.01205 	-0.26228 	3.74194e-21 7.00596 	-0.262917 	2.83533e-21 7.0004 	-0.263417 	6.34081e-21 6.99483 	-0.263917 	9.84686e-21 6.98924 	-0.264418 	1.33535e-20 6.9838 	-0.264905 	1.67683e-20 6.9767 	-0.26553 	2.05085e-20 6.96958 	-0.266155 	2.42479e-20 6.96244 	-0.266781 	2.79862e-20 6.95529 	-0.267407 	3.17236e-20 6.94914 	-0.267872 	3.55246e-20 6.93564 	-0.269127 	3.29026e-20 6.92252 	-0.270196 	3.18293e-20 6.90935 	-0.271266 	3.07501e-20 6.89612 	-0.272337 	2.96648e-20 6.88571 	-0.27294 	2.87856e-20 6.87109 	-0.27445 	2.72347e-20 6.85764 	-0.275434 	2.54755e-20 6.84414 	-0.276419 	2.37108e-20 6.83059 	-0.277405 	2.19405e-20 6.82175 	-0.277607 	2.40537e-20 6.80609 	-0.279319 	1.99578e-20 6.79226 	-0.280241 	1.87752e-20 6.77846 	-0.281126 	1.77298e-20 6.766 	-0.281783 	1.77128e-20 6.75742 	-0.281788 	2.06489e-20 6.74145 	-0.283373 	1.61806e-20 6.72648 	-0.284528 	1.01693e-20 6.71243 	-0.285296 	2.77208e-21 6.70168 	-0.28551 	-2.12927e-21 6.69292 	-0.285392 	-5.53498e-21 6.67672 	-0.286839 	-2.63486e-21 6.66064 	-0.288215 	0 6.64638 	-0.288866 	0 6.63742 	-0.288641 	0 6.62849 	-0.288412 	0 6.61207 	-0.289743 	0 6.5956 	-0.291075 	0 6.58241 	-0.291557 	-1.07165e-21 6.57334 	-0.29119 	-3.96436e-21 6.56427 	-0.290824 	-6.8574e-21 6.54769 	-0.292014 	-4.40918e-21 6.53106 	-0.293206 	-1.96239e-21 6.51885 	-0.293557 	-1.20315e-21 6.5097 	-0.293041 	7.91327e-22 6.50055 	-0.292525 	2.78624e-21 6.48388 	-0.293563 	-2.09123e-20 6.46787 	-0.294479 	-4.12334e-20 6.45653 	-0.294603 	-3.97046e-20 6.44681 	-0.294133 	-1.87776e-20 6.43763 	-0.293465 	8.62345e-21 6.4209 	-0.294348 	-1.97015e-20 6.40696 	-0.294748 	-3.27029e-20 6.39563 	-0.294699 	-3.15202e-20 6.38493 	-0.294417 	-2.43934e-20 6.3758 	-0.293578 	-3.09889e-21 6.35907 	-0.294289 	-6.44156e-21 6.3473 	-0.294146 	-2.70867e-21 6.33603 	-0.293914 	1.761e-21 6.32475 	-0.293682 	6.23063e-21 6.31537 	-0.292792 	1.22264e-20 6.30033 	-0.293048 	8.23389e-21 6.2892 	-0.29263 	1.07281e-20 6.27807 	-0.292212 	1.32224e-20 6.26694 	-0.291793 	1.57169e-20 6.25668 	-0.29108 	2.04664e-20 6.24566 	-0.290883 	2.13598e-20 6.23645 	-0.290374 	1.89077e-20 6.22723 	-0.289865 	1.64558e-20 6.21802 	-0.289356 	1.40041e-20 6.20883 	-0.288849 	1.15591e-20 6.20707 	-0.288757 	1.11486e-20 6.2053 	-0.288665 	1.07381e-20 6.20354 	-0.288574 	1.03276e-20 6.20178 	-0.288482 	9.91706e-21 6.20026 	-0.288337 	9.5279e-21 6.1892 	-0.287626 	7.62856e-21 6.17822 	-0.286867 	5.47424e-21 6.16725 	-0.286108 	3.32007e-21 6.15629 	-0.285349 	1.16604e-21 6.14715 	-0.284203 	1.63467e-21 6.13588 	-0.283623 	6.70236e-22 6.12524 	-0.282702 	2.1373e-21 6.1146 	-0.281781 	3.60458e-21 6.10398 	-0.280859 	5.07207e-21 6.09676 	-0.279221 	1.25309e-20 6.08534 	-0.278749 	1.76792e-20 6.07508 	-0.277668 	1.99055e-20 6.06484 	-0.276583 	2.21077e-20 6.05558 	-0.275294 	2.22329e-20 6.04937 	-0.273367 	1.58067e-20 6.0384 	-0.27271 	2.1422e-20 6.02806 	-0.271737 	2.41973e-20 6.01828 	-0.27049 	2.45025e-20 6.011 	-0.268727 	2.0738e-20 6.00526 	-0.266652 	1.45183e-20 5.99478 	-0.26582 	1.996e-20 5.98441 	-0.26494 	2.46352e-20 5.97516 	-0.263551 	2.12869e-20 5.96986 	-0.261358 	1.1932e-20 5.96462 	-0.259165 	2.57309e-21 5.95471 	-0.258181 	1.31766e-21 5.9448 	-0.257197 	6.15261e-23 5.93714 	-0.255592 	-3.07798e-21 5.93238 	-0.25332 	-7.81338e-21 5.92768 	-0.251048 	-1.25519e-20 5.91837 	-0.249945 	-7.02772e-21 5.90909 	-0.248841 	-1.50467e-21 5.90286 	-0.247096 	-2.48759e-21 5.89866 	-0.244779 	-8.21328e-21 5.89452 	-0.242462 	-1.39397e-20 5.88586 	-0.24127 	1.33631e-21 5.87752 	-0.240024 	1.53399e-20 5.8726 	-0.238146 	1.43375e-20 5.86875 	-0.235896 	3.55908e-21 5.86518 	-0.233569 	-9.23747e-21 5.85719 	-0.232319 	-5.95084e-21 5.85073 	-0.230803 	-3.18343e-21 5.84638 	-0.228914 	-1.13955e-21 5.84263 	-0.226845 	0 5.83962 	-0.224548 	0 5.83231 	-0.223277 	0 5.82762 	-0.221569 	0 5.82384 	-0.219712 	0 5.8202 	-0.217829 	0 5.81775 	-0.215608 	0 5.81133 	-0.214327 	3.76553e-24 5.80807 	-0.212546 	6.50854e-23 5.80485 	-0.210766 	1.26375e-22 5.80168 	-0.208987 	1.87633e-22 5.79943 	-0.206977 	-3.88771e-22 5.79465 	-0.205619 	4.21215e-21 5.79192 	-0.203961 	1.83546e-21 5.78924 	-0.202303 	-5.36449e-22 5.7866 	-0.200646 	-2.90356e-21 5.78446 	-0.198882 	-8.39407e-21 5.78117 	-0.197533 	-6.46561e-21 5.77896 	-0.196044 	-4.90384e-21 5.77678 	-0.194555 	-3.34121e-21 5.77463 	-0.193066 	-1.77773e-21 5.77261 	-0.191562 	-2.1127e-22 5.77203 	-0.191298 	-3.68422e-24 5.77163 	-0.191012 	4.37956e-22 5.77123 	-0.190726 	8.79562e-22 5.77084 	-0.190439 	1.32113e-21 5.77044 	-0.190149 	1.7693e-21 5.76921 	-0.189156 	3.73543e-21 5.76801 	-0.188162 	5.6987e-21 5.76682 	-0.18717 	7.65912e-21 5.76566 	-0.186178 	9.61668e-21 5.76468 	-0.185119 	7.73855e-21 5.76359 	-0.184141 	3.8189e-21 5.76241 	-0.183123 	9.09369e-23 5.76126 	-0.182106 	-3.63491e-21 5.76013 	-0.181089 	-7.35863e-21 5.75933 	-0.17995 	-1.10739e-20 5.75877 	-0.17932 	-1.66428e-20 5.75793 	-0.178622 	-1.75718e-20 5.7571 	-0.177925 	-1.84973e-20 5.7563 	-0.177228 	-1.94192e-20 5.75589 	-0.176387 	-1.00126e-20 5.75579 	-0.17614 	-4.87677e-21 5.75523 	-0.175824 	-1.62784e-21 5.75467 	-0.175509 	1.6211e-21 5.75411 	-0.175193 	4.87005e-21 5.75395 	-0.17474 	6.58441e-21 5.75426 	-0.174913 	1.78916e-20 5.75392 	-0.175032 	1.87567e-20 5.75356 	-0.17515 	1.92682e-20 5.75324 	-0.175249 	1.76998e-20 5.75317 	-0.175262 	6.22322e-21 5.75367 	-0.17587 	4.46169e-21 5.75366 	-0.176454 	2.73008e-21 5.75344 	-0.177027 	1.01087e-21 5.75327 	-0.177567 	-1.39363e-21 5.7532 	-0.178057 	-4.77595e-21 5.75384 	-0.179108 	-1.71916e-21 5.75413 	-0.180153 	0 5.75398 	-0.181193 	0 5.75385 	-0.1822 	-2.23362e-21 5.75372 	-0.18319 	-5.64814e-21 5.75443 	-0.184706 	-2.57295e-21 5.75497 	-0.186223 	2.5128e-22 5.75482 	-0.187753 	1.79318e-21 5.7546 	-0.189269 	6.47547e-21 5.75433 	-0.190784 	1.14949e-20 5.75503 	-0.192796 	1.97894e-20 5.75568 	-0.194807 	2.80849e-20 5.75553 	-0.196842 	2.83247e-20 5.7551 	-0.198885 	2.10536e-20 5.75463 	-0.200928 	1.37835e-20 5.75523 	-0.203444 	1.47283e-20 5.75578 	-0.205959 	1.56752e-20 5.75566 	-0.208505 	1.25092e-20 5.75495 	-0.211083 	5.18724e-21 5.75419 	-0.213658 	-2.13358e-21 5.75462 	-0.216687 	-1.44408e-20 5.75498 	-0.219713 	-2.67454e-20 5.75479 	-0.222782 	-2.94043e-20 5.75373 	-0.225897 	-1.95321e-20 5.7526 	-0.229009 	-9.6616e-21 5.75278 	-0.232555 	7.02298e-21 5.75285 	-0.236101 	2.30797e-20 5.75242 	-0.239707 	2.16184e-20 5.75105 	-0.243355 	4.72213e-21 5.74947 	-0.247006 	-1.41824e-20 5.74931 	-0.251077 	-3.67719e-20 5.74886 	-0.255172 	-4.78285e-20 5.74798 	-0.259313 	-3.89865e-20 5.74651 	-0.263477 	-2.06521e-20 5.74442 	-0.267666 	7.48164e-21 5.74384 	-0.272262 	8.11417e-21 5.74271 	-0.276916 	1.01655e-20 5.74131 	-0.28159 	1.27614e-20 5.73974 	-0.286262 	1.55366e-20 5.73706 	-0.290986 	2.11909e-20 5.7359 	-0.296116 	2.96382e-20 5.73402 	-0.301323 	2.94309e-20 5.73202 	-0.306525 	2.92172e-20 5.72989 	-0.311722 	2.89972e-20 5.72701 	-0.316947 	2.41093e-20 5.72496 	-0.322635 	2.35965e-20 5.72242 	-0.328361 	2.68362e-20 5.71973 	-0.334082 	3.01006e-20 5.71691 	-0.339798 	3.33898e-20 5.71392 	-0.345512 	3.68529e-20 5.71384 	-0.345702 	3.70788e-20 5.71374 	-0.345892 	3.6976e-20 5.71365 	-0.346083 	3.68731e-20 5.71355 	-0.346273 	3.67701e-20 5.71346 	-0.346462 	3.66678e-20 5.71065 	-0.35247 	3.3832e-20 5.70771 	-0.358472 	3.09711e-20 5.70463 	-0.364467 	2.80853e-20 5.70141 	-0.370456 	2.51744e-20 5.69766 	-0.376495 	2.03341e-20 5.69466 	-0.383154 	2.02621e-