# vtk DataFile Version 2.0
track0
ASCII
DATASET POLYDATA
POINTS 10930 double
-0.0205 0.001 1e-05
-0.0202034 0.00100022 1e-05
-0.0199069 0.00100067 1e-05
-0.0196103 0.00100132 1e-05
-0.0193137 0.00100216 1e-05
-0.0190172 0.0010032 1e-05
-0.0187132 0.00100461 1e-05
-0.0184093 0.00100572 1e-05
-0.0181054 0.0010068 1e-05
-0.0178015 0.00100784 1e-05
-0.0174976 0.00100885 1e-05
-0.0172058 0.00101 1e-05
-0.016914 0.00101081 1e-05
-0.0166222 0.00101159 1e-05
-0.0163305 0.00101234 1e-05
-0.0160387 0.00101307 1e-05
-0.0157586 0.00101393 1e-05
-0.0154784 0.00101461 1e-05
-0.0151983 0.00101533 1e-05
-0.0149182 0.00101609 1e-05
-0.0146381 0.00101689 1e-05
-0.0143692 0.00101781 1e-05
-0.0141002 0.00101866 1e-05
-0.0138313 0.00101956 1e-05
-0.0135624 0.00102052 1e-05
-0.0132934 0.00102152 1e-05
-0.0130366 0.00102258 1e-05
-0.0127798 0.00102363 1e-05
-0.012523 0.00102472 1e-05
-0.0122662 0.00102584 1e-05
-0.0120515 0.00102682 1e-05
-0.0120417 0.00102686 1e-05
-0.0120319 0.00102691 1e-05
-0.0120221 0.00102695 1e-05
-0.0120123 0.001027 1e-05
-0.0120025 0.00102705 1e-05
-0.0117547 0.00102821 1e-05
-0.0115068 0.00102939 1e-05
-0.0112589 0.0010306 1e-05
-0.0110111 0.00103183 1e-05
-0.0107632 0.00103308 1e-05
-0.0105252 0.0010343 1e-05
-0.0102873 0.00103554 1e-05
-0.0100493 0.0010368 1e-05
-0.00981133 0.00103807 1e-05
-0.00957337 0.00103935 1e-05
-0.00934491 0.00104058 1e-05
-0.00911645 0.00104183 1e-05
-0.008888 0.00104309 1e-05
-0.00865954 0.00104436 1e-05
-0.00843108 0.00104563 1e-05
-0.00821175 0.00104684 1e-05
-0.00799242 0.00104807 1e-05
-0.00777309 0.0010493 1e-05
-0.00755376 0.00105054 1e-05
-0.00733443 0.00105177 1e-05
-0.00712387 0.00105294 1e-05
-0.0069133 0.00105413 1e-05
-0.00670273 0.00105532 1e-05
-0.00649217 0.0010565 1e-05
-0.0062816 0.00105769 1e-05
-0.00607944 0.0010588 1e-05
-0.00587729 0.00105993 1e-05
-0.00567514 0.00106106 1e-05
-0.00547298 0.00106218 1e-05
-0.00527083 0.00106331 1e-05
-0.00507675 0.00106436 1e-05
-0.00488267 0.00106543 1e-05
-0.0046886 0.00106649 1e-05
-0.00449452 0.00106755 1e-05
-0.00430044 0.0010686 1e-05
-0.00411412 0.00106959 1e-05
-0.0039278 0.00107058 1e-05
-0.00374147 0.00107157 1e-05
-0.00355515 0.00107256 1e-05
-0.00336883 0.00107353 1e-05
-0.00318995 0.00107445 1e-05
-0.00301107 0.00107537 1e-05
-0.00283219 0.00107629 1e-05
-0.00265331 0.00107719 1e-05
-0.00247443 0.00107809 1e-05
-0.0023027 0.00107893 1e-05
-0.00213097 0.00107977 1e-05
-0.00195924 0.0010806 1e-05
-0.0017875 0.00108142 1e-05
-0.00161577 0.00108223 1e-05
-0.0014509 0.00108298 1e-05
-0.00128603 0.00108373 1e-05
-0.00112116 0.00108446 1e-05
-0.000956289 0.00108518 1e-05
-0.000791418 0.00108588 1e-05
-0.000633135 0.00108653 1e-05
-0.000474851 0.00108716 1e-05
-0.000316567 0.00108777 1e-05
-0.000158283 0.00108836 1e-05
0 0.00108892 1e-05
0.000105677 0.00108927 1e-05
0.000211355 0.00108962 1e-05
0.000317032 0.00108995 1e-05
0.00042271 0.00109026 1e-05
0.000528387 0.00109057 1e-05
0.000634886 0.00109085 1e-05
0.000741385 0.00109113 1e-05
0.000847885 0.0010914 1e-05
0.000954384 0.00109165 1e-05
0.00106088 0.0010919 1e-05
0.00116821 0.00109212 1e-05
0.00127554 0.00109235 1e-05
0.00138286 0.00109256 1e-05
0.00149019 0.00109276 1e-05
0.00159752 0.00109295 1e-05
0.00170568 0.00109312 1e-05
0.00181384 0.00109328 1e-05
0.001922 0.00109344 1e-05
0.00203016 0.00109358 1e-05
0.00213833 0.00109371 1e-05
0.00224733 0.00109383 1e-05
0.00235633 0.00109394 1e-05
0.00246533 0.00109404 1e-05
0.00257434 0.00109414 1e-05
0.00268334 0.00109422 1e-05
0.00279319 0.00109428 1e-05
0.00290304 0.00109435 1e-05
0.00301289 0.00109441 1e-05
0.00312274 0.00109447 1e-05
0.00323259 0.00109451 1e-05
0.00334329 0.00109454 1e-05
0.003454 0.00109457 1e-05
0.0035647 0.0010946 1e-05
0.0036754 0.00109462 1e-05
0.00378611 0.00109464 1e-05
0.00389767 0.00109464 1e-05
0.00400924 0.00109464 1e-05
0.0041208 0.00109464 1e-05
0.00423237 0.00109463 1e-05
0.00434393 0.00109461 1e-05
0.00445636 0.00109459 1e-05
0.00456879 0.00109456 1e-05
0.00468123 0.00109453 1e-05
0.00479366 0.0010945 1e-05
0.00490609 0.00109446 1e-05
0.0050194 0.0010944 1e-05
0.0051327 0.00109435 1e-05
0.00524601 0.00109429 1e-05
0.00535931 0.00109423 1e-05
0.00547262 0.00109417 1e-05
0.00554954 0.00109412 1e-05
0.00562646 0.00109406 1e-05
0.00570338 0.00109401 1e-05
0.0057803 0.00109395 1e-05
0.00585563 0.0010939 1e-05
0.00589322 0.00109387 1e-05
0.0059308 0.00109384 1e-05
0.00596839 0.00109381 1e-05
0.00600597 0.00109378 1e-05
0.00604356 0.00109374 1e-05
0.00615863 0.00109364 1e-05
0.00627371 0.00109354 1e-05
0.00638878 0.00109343 1e-05
0.00650386 0.00109332 1e-05
0.00661893 0.0010932 1e-05
0.0067349 0.00109308 1e-05
0.00685087 0.00109295 1e-05
0.00696684 0.00109282 1e-05
0.00708281 0.00109268 1e-05
0.00719878 0.00109254 1e-05
0.00731565 0.00109238 1e-05
0.00743252 0.00109223 1e-05
0.00754939 0.00109207 1e-05
0.00766626 0.00109191 1e-05
0.00778313 0.00109174 1e-05
0.00790091 0.00109156 1e-05
0.00801869 0.00109138 1e-05
0.00813647 0.0010912 1e-05
0.00825425 0.00109101 1e-05
0.00837203 0.00109082 1e-05
0.00849073 0.0010906 1e-05
0.00860942 0.00109039 1e-05
0.00872812 0.00109018 1e-05
0.00884682 0.00108997 1e-05
0.00896551 0.00108975 1e-05
0.00908513 0.0010895 1e-05
0.00920475 0.00108926 1e-05
0.00932437 0.00108903 1e-05
0.00944398 0.00108878 1e-05
0.0095636 0.00108854 1e-05
0.00968415 0.00108825 1e-05
0.0098047 0.00108799 1e-05
0.00992525 0.00108772 1e-05
0.0100458 0.00108745 1e-05
0.0101663 0.00108717 1e-05
0.0102878 0.00108685 1e-05
0.0104093 0.00108656 1e-05
0.0105308 0.00108626 1e-05
0.0106523 0.00108596 1e-05
0.0107738 0.00108565 1e-05
0.0108962 0.00108529 1e-05
0.0110186 0.00108496 1e-05
0.0111411 0.00108463 1e-05
0.0112635 0.00108429 1e-05
0.0113859 0.00108395 1e-05
0.0115093 0.00108356 1e-05
0.0116327 0.00108319 1e-05
0.0117561 0.00108283 1e-05
0.0118795 0.00108245 1e-05
0.0120028 0.00108208 1e-05
0.0121272 0.00108164 1e-05
0.0122515 0.00108124 1e-05
0.0123759 0.00108083 1e-05
0.0125002 0.00108042 1e-05
0.0126245 0.00108 1e-05
0.0127498 0.00107952 1e-05
0.0128752 0.00107908 1e-05
0.0130005 0.00107863 1e-05
0.0131258 0.00107818 1e-05
0.0132511 0.00107771 1e-05
0.0133774 0.00107719 1e-05
0.0135036 0.0010767 1e-05
0.0136299 0.00107621 1e-05
0.0137562 0.00107571 1e-05
0.0138825 0.00107519 1e-05
0.0140098 0.00107463 1e-05
0.014137 0.00107408 1e-05
0.0142643 0.00107354 1e-05
0.0143915 0.001073 1e-05
0.0145188 0.00107243 1e-05
0.0146471 0.00107181 1e-05
0.0147753 0.00107122 1e-05
0.0149036 0.00107063 1e-05
0.0150318 0.00107003 1e-05
0.0151601 0.0010694 1e-05
0.0152893 0.00106874 1e-05
0.0154186 0.00106809 1e-05
0.0155478 0.00106744 1e-05
0.0156771 0.00106678 1e-05
0.0158063 0.0010661 1e-05
0.0159366 0.00106538 1e-05
0.0160668 0.00106467 1e-05
0.0161971 0.00106397 1e-05
0.0163274 0.00106325 1e-05
0.0164576 0.00106251 1e-05
0.0165889 0.00106173 1e-05
0.0167201 0.00106096 1e-05
0.0168514 0.00106019 1e-05
0.0169827 0.00105941 1e-05
0.0171139 0.0010586 1e-05
0.0172462 0.00105776 1e-05
0.0173785 0.00105692 1e-05
0.0175108 0.00105608 1e-05
0.0176431 0.00105523 1e-05
0.0177754 0.00105436 1e-05
0.0179087 0.00105345 1e-05
0.018042 0.00105254 1e-05
0.0181753 0.00105163 1e-05
0.0183087 0.0010507 1e-05
0.018442 0.00104975 1e-05
0.0185763 0.00104878 1e-05
0.0187107 0.00104779 1e-05
0.018845 0.0010468 1e-05
0.0189794 0.00104579 1e-05
0.0191137 0.00104477 1e-05
0.0192491 0.00104372 1e-05
0.0193845 0.00104265 1e-05
0.0195199 0.00104158 1e-05
0.0196553 0.00104048 1e-05
0.0197907 0.00103938 1e-05
0.0199272 0.00103825 1e-05
0.0200636 0.00103711 1e-05
0.0202001 0.00103594 1e-05
0.0203365 0.00103476 1e-05
0.020473 0.00103357 1e-05
0.0206105 0.00103236 1e-05
0.020748 0.00103113 1e-05
0.0208855 0.00102987 1e-05
0.021023 0.00102859 1e-05
0.0211606 0.00102731 1e-05
0.0212991 0.00102602 1e-05
0.0214377 0.0010247 1e-05
0.0215763 0.00102334 1e-05
0.0217149 0.00102197 1e-05
0.0218535 0.0010206 1e-05
0.0219931 0.00101921 1e-05
0.0221328 0.00101779 1e-05
0.0222724 0.00101634 1e-05
0.0224121 0.00101487 1e-05
0.0225517 0.0010134 1e-05
0.0226925 0.00101191 1e-05
0.0228332 0.00101039 1e-05
0.022974 0.00100884 1e-05
0.0231147 0.00100727 1e-05
0.0232555 0.00100569 1e-05
0.0233973 0.00100411 1e-05
0.0235391 0.00100248 1e-05
0.023681 0.00100082 1e-05
0.0238228 0.000999145 1e-05
0.0239647 0.000997464 1e-05
0.0241076 0.000995773 1e-05
0.0242505 0.000994038 1e-05
0.0243935 0.00099227 1e-05
0.0245364 0.000990484 1e-05
0.0246794 0.000988691 1e-05
0.0248234 0.000986889 1e-05
0.0249675 0.00098504 1e-05
0.0251115 0.00098316 1e-05
0.0252556 0.000981262 1e-05
0.0253996 0.000979353 1e-05
0.0255448 0.000977432 1e-05
0.02569 0.000975463 1e-05
0.0258351 0.000973466 1e-05
0.0259803 0.000971449 1e-05
0.0261255 0.000969417 1e-05
0.0262718 0.000967374 1e-05
0.0264181 0.000965279 1e-05
0.0265644 0.000963161 1e-05
0.0267107 0.000961022 1e-05
0.026857 0.000958864 1e-05
0.0270044 0.000956691 1e-05
0.0271519 0.000954469 1e-05
0.0272993 0.000952225 1e-05
0.0274467 0.00094996 1e-05
0.0275942 0.000947673 1e-05
0.0277428 0.000945365 1e-05
0.0278914 0.000943012 1e-05
0.0280399 0.000940636 1e-05
0.0281885 0.000938237 1e-05
0.0283371 0.000935815 1e-05
0.0284869 0.000933367 1e-05
0.0286366 0.000930878 1e-05
0.0287863 0.000928366 1e-05
0.0289361 0.00092583 1e-05
0.0290858 0.00092327 1e-05
0.0292367 0.000920677 1e-05
0.0293876 0.000918048 1e-05
0.0295385 0.000915394 1e-05
0.0296894 0.000912715 1e-05
0.0298403 0.000910011 1e-05
0.0299804 0.000907481 1e-05
0.0301205 0.000904924 1e-05
0.0302606 0.000902345 1e-05
0.0304007 0.000899744 1e-05
0.0305317 0.000897291 1e-05
0.0305455 0.000897031 1e-05
0.0305593 0.00089677 1e-05
0.0305731 0.000896508 1e-05
0.0305869 0.000896247 1e-05
0.0306007 0.000895985 1e-05
0.030754 0.00089308 1e-05
0.0309072 0.000890147 1e-05
0.0310605 0.000887187 1e-05
0.0312138 0.000884199 1e-05
0.031367 0.000881183 1e-05
0.0315215 0.000878123 1e-05
0.0316759 0.000875027 1e-05
0.0318304 0.000871903 1e-05
0.0319848 0.00086875 1e-05
0.0321393 0.000865568 1e-05
0.0322949 0.000862345 1e-05
0.0324506 0.00085908 1e-05
0.0326062 0.000855784 1e-05
[...]
POINT_DATA 10930
 FIELD attributes 2
p 1 10930 float
-6.00992 -6.00547 -5.99797 -5.99038 -5.9827 -5.9704 -5.97682 -5.98846 -6.0001 -6.01175 -6.03728 -6.05706 -6.08993 -6.12281 -6.15569 -6.1954 -6.21003 -6.23586 -6.26169 -6.28753 -6.31861 -6.33776 -6.36305 -6.38836 -6.41368 -6.44156 -6.46552 -6.49154 -6.51757 -6.54361 -6.56538 -6.56638 -6.56737 -6.56836 -6.56936 -6.57032 -6.59358 -6.61683 -6.64008 -6.66334 -6.68575 -6.70591 -6.72553 -6.74515 -6.76478 -6.78305 -6.80132 -6.81877 -6.83622 -6.85367 -6.86959 -6.88687 -6.90317 -6.91948 -6.93579 -6.95051 -6.96705 -6.98256 -6.99807 -7.01358 -7.02752 -7.04344 -7.05836 -7.07328 -7.0882 -7.10167 -7.11717 -7.13179 -7.14641 -7.16102 -7.17435 -7.1897 -7.20436 -7.21902 -7.23367 -7.24722 -7.26271 -7.27773 -7.29275 -7.30776 -7.32176 -7.33768 -7.3535 -7.36933 -7.38515 -7.39997 -7.41638 -7.43291 -7.44944 -7.46597 -7.48097 -7.49588 -7.51013 -7.52438 -7.53863 -7.55048 -7.55952 -7.56674 -7.57397 -7.5812 -7.58672 -7.5908 -7.59268 -7.59456 -7.59644 -7.59739 -7.59929 -7.60025 -7.60122 -7.60218 -7.60311 -7.60649 -7.60812 -7.60976 -7.61139 -7.61194 -7.61545 -7.61615 -7.61685 -7.61754 -7.61626 -7.61878 -7.6187 -7.61862 -7.61854 -7.61646 -7.61845 -7.61855 -7.61864 -7.61874 -7.61721 -7.6186 -7.61869 -7.61878 -7.61887 -7.61786 -7.61808 -7.61751 -7.61693 -7.61635 -7.61525 -7.6144 -7.61321 -7.61201 -7.61081 -7.60949 -7.60873 -7.60789 -7.60706 -7.60622 -7.6054 -7.60499 -7.60458 -7.60417 -7.60376 -7.60333 -7.60242 -7.60149 -7.60056 -7.59963 -7.59861 -7.59803 -7.59734 -7.59664 -7.59595 -7.59508 -7.59452 -7.5938 -7.59308 -7.59235 -7.59145 -7.59068 -7.58985 -7.58903 -7.58821 -7.58743 -7.58638 -7.58566 -7.58494 -7.58421 -7.58402 -7.58276 -7.58239 -7.58203 -7.58167 -7.58254 -7.58105 -7.58116 -7.58128 -7.58139 -7.58356 -7.58169 -7.58222 -7.58276 -7.58329 -7.58678 -7.58432 -7.58516 -7.586 -7.58684 -7.59163 -7.58845 -7.58955 -7.59064 -7.59174 -7.5979 -7.5941 -7.59537 -7.59674 -7.59861 -7.60574 -7.60183 -7.60283 -7.60456 -7.60749 -7.61549 -7.61169 -7.61244 -7.61464 -7.61881 -7.62766 -7.62427 -7.62481 -7.62752 -7.63298 -7.64245 -7.63966 -7.64004 -7.64323 -7.64986 -7.65969 -7.65764 -7.65792 -7.66154 -7.66915 -7.6791 -7.67793 -7.67825 -7.68221 -7.69052 -7.7003 -7.69994 -7.70034 -7.70456 -7.71333 -7.7228 -7.72319 -7.72373 -7.72817 -7.73727 -7.74643 -7.74756 -7.74869 -7.7535 -7.76232 -7.77115 -7.77304 -7.77492 -7.77998 -7.78843 -7.79688 -7.79947 -7.80207 -7.80732 -7.81534 -7.82336 -7.82658 -7.8298 -7.83518 -7.84273 -7.85029 -7.85402 -7.85776 -7.8632 -7.87027 -7.87734 -7.88149 -7.88563 -7.89107 -7.89765 -7.90423 -7.90866 -7.91309 -7.91848 -7.92457 -7.93067 -7.93526 -7.93992 -7.94519 -7.95078 -7.9564 -7.96104 -7.96578 -7.97087 -7.97601 -7.98118 -7.98575 -7.99043 -7.99526 -8.00004 -8.00478 -8.00921 -8.01368 -8.01818 -8.02261 -8.02692 -8.03113 -8.03527 -8.0394 -8.04347 -8.04733 -8.05121 -8.05493 -8.05863 -8.06233 -8.06574 -8.06918 -8.07242 -8.07566 -8.0789 -8.08191 -8.08481 -8.08755 -8.0903 -8.09306 -8.09564 -8.09795 -8.10016 -8.10237 -8.10458 -8.10671 -8.10839 -8.11002 -8.11165 -8.11329 -8.1149 -8.11586 -8.11682 -8.11778 -8.11874 -8.11964 -8.11974 -8.11984 -8.11994 -8.12004 -8.12013 -8.12058 -8.12103 -8.12148 -8.12193 -8.12235 -8.12217 -8.12194 -8.12171 -8.12149 -8.12122 -8.12041 -8.11949 -8.11857 -8.11766 -8.11667 -8.11523 -8.11356 -8.11189 -8.11023 -8.10839 -8.1062 -8.10373 -8.10126 -8.09877 -8.09611 -8.09306 -8.08985 -8.08659 -8.08328 -8.0799 -8.07602 -8.07206 -8.06799 -8.06383 -8.05963 -8.05484 -8.05004 -8.04511 -8.04009 -8.03505 -8.02931 -8.02357 -8.01779 -8.01201 -8.00623 -7.99963 -7.99304 -7.98645 -7.97987 -7.9733 -7.96586 -7.95843 -7.95101 -7.94358 -7.93614 -7.92781 -7.91948 -7.91121 -7.90295 -7.8947 -7.8855 -7.87633 -7.86721 -7.85812 -7.84903 -7.83894 -7.82896 -7.81905 -7.80916 -7.79934 -7.78846 -7.7778 -7.76716 -7.75653 -7.74606 -7.73455 -7.72325 -7.71196 -7.70067 -7.6895 -7.67741 -7.66544 -7.65348 -7.64152 -7.62962 -7.62392 -7.61828 -7.61264 -7.607 -7.60151 -7.59457 -7.58763 -7.5807 -7.57377 -7.56686 -7.55386 -7.54094 -7.52802 -7.51511 -7.50239 -7.48901 -7.47591 -7.46281 -7.44973 -7.43707 -7.42337 -7.41018 -7.39702 -7.38402 -7.37145 -7.35775 -7.34433 -7.33118 -7.31842 -7.3059 -7.29224 -7.27863 -7.26551 -7.25306 -7.24061 -7.22699 -7.21337 -7.20051 -7.18842 -7.17633 -7.163 -7.14967 -7.13728 -7.12582 -7.11436 -7.10156 -7.08893 -7.07729 -7.06639 -7.05573 -7.04362 -7.03221 -7.02144 -7.011 -7.00135 -6.99018 -6.98031 -6.97057 -6.96084 -6.95214 -6.94248 -6.93391 -6.92535 -6.91679 -6.90874 -6.90207 -6.89593 -6.88979 -6.88366 -6.87753 -6.87638 -6.87523 -6.87408 -6.87292 -6.87188 -6.86583 -6.85989 -6.85395 -6.848 -6.84289 -6.83764 -6.83324 -6.82885 -6.82445 -6.82166 -6.81729 -6.81461 -6.81194 -6.80973 -6.80899 -6.8064 -6.80475 -6.8039 -6.80424 -6.8053 -6.80455 -6.80395 -6.80494 -6.80777 -6.81059 -6.81167 -6.81275 -6.81559 -6.82014 -6.82467 -6.82756 -6.83044 -6.83491 -6.84113 -6.84733 -6.85204 -6.85686 -6.86302 -6.87053 -6.87831 -6.88471 -6.89166 -6.89938 -6.90779 -6.91708 -6.92509 -6.93394 -6.94307 -6.9523 -6.96292 -6.97248 -6.98289 -6.99328 -7.00366 -7.01503 -7.0261 -7.03758 -7.04905 -7.06052 -7.07245 -7.08467 -7.09701 -7.10935 -7.12168 -7.13407 -7.13697 -7.13989 -7.1428 -7.14571 -7.14867 -7.15865 -7.16863 -7.1786 -7.18857 -7.19857 -7.2116 -7.22482 -7.23804 -7.25126 -7.26441 -7.27731 -7.29052 -7.30374 -7.31695 -7.32986 -7.34236 -7.35519 -7.36802 -7.38085 -7.39303 -7.40494 -7.41699 -7.42905 -7.44094 -7.45205 -7.46304 -7.47401 -7.48496 -7.49544 -7.50524 -7.51506 -7.52477 -7.53435 -7.54304 -7.55126 -7.5596 -7.56789 -7.57584 -7.5824 -7.58882 -7.59545 -7.6021 -7.60792 -7.61219 -7.61646 -7.62105 -7.62564 -7.62892 -7.63072 -7.63254 -7.63476 -7.63699 -7.63734 -7.63629 -7.63525 -7.6347 -7.63407 -7.63107 -7.62697 -7.62274 -7.61907 -7.61441 -7.60805 -7.60096 -7.59311 -7.5859 -7.57659 -7.56648 -7.55628 -7.54448 -7.53304 -7.5188 -7.50457 -7.49033 -7.47501 -7.45785 -7.43912 -7.42039 -7.40167 -7.38289 -7.38222 -7.3815 -7.38078 -7.38006 -7.37935 -7.35697 -7.3346 -7.31224 -7.28989 -7.2659 -7.23907 -7.21088 -7.1827 -7.15453 -7.12271 -7.0916 -7.05858 -7.02496 -6.9893 -6.95173 -6.915 -6.87826 -6.83841 -6.79493 -6.75141 -6.70874 -6.66607 -6.61977 -6.57007 -6.52032 -6.47141 -6.42058 -6.36729 -6.31347 -6.25728 -6.20116 -6.14128 -6.08139 -6.02149 -5.96126 -5.95719 -5.95288 -5.94857 -5.94426 -5.94 -5.87881 -5.81762 -5.75645 -5.69529 -5.63038 -5.56121 -5.48941 -5.41724 -5.34213 -5.2649 -5.1888 -5.11271 -5.03268 -4.94871 -4.86451 -4.78141 -4.69608 -4.60806 -4.52003 -4.42911 -4.3816 -4.33158 -4.2815 -4.23141 -4.18534 -4.1404 -4.09546 -4.05052 -4.00551 -3.95805 -3.86038 -3.76028 -3.66022 -3.55732 -3.45188 -3.3478 -3.24374 -3.13597 -3.02444 -2.91246 -2.8078 -2.69961 -2.59059 -2.48158 -2.38665 -2.37761 -2.36857 -2.35953 -2.35041 -2.34099 -2.22189 -2.10239 -1.98294 -1.86202 -1.7375 -1.61446 -1.49145 -1.36543 -1.2363 -1.10644 -1.00961 -0.911041 -0.811487 -0.711952 -0.621804 -0.587705 -0.55361 -0.519519 -0.485069 -0.449947 -0.316279 -0.181356 -0.0464977 0.0907377 0.229665 0.36711 0.505055 0.645023 0.784938 0.926807 0.953343 0.980053 1.00696 1.03386 1.06019 1.17549 1.29073 1.40593 1.52189 1.63937 1.78266 1.92587 2.06999 2.21487 2.36114 2.41718 2.47329 2.52951 2.58572 2.63972 2.72933 2.81892 2.90847 2.99818 3.0885 3.23391 3.37923 3.52435 3.66951 3.81597 3.87486 3.93361 3.99208 4.05053 4.10687 4.19352 4.28014 4.36672 4.45292 4.53942 4.68313 4.82673 4.96913 5.11085 5.25383 5.29642 5.33885 5.38076 5.42266 5.46363 5.56254 5.66142 5.76025 5.85802 5.956 6.09456 6.23304 6.36889 6.50462 6.64111 6.65697 6.67277 6.68826 6.70375 6.71914 6.83769 6.9562 7.07465 7.19093 7.30726 7.42529 7.54265 7.65732 7.77195 7.88258 7.8962 7.90982 7.92343 7.9367 7.94992 8.07589 8.2012 8.32618 8.44713 8.56855 8.63497 8.70111 8.76495 8.8288 8.89208 8.94627 9.00046 9.05465 9.10702 9.15922 9.27429 9.38936 9.50081 9.6109 9.72038 9.73855 9.75665 9.77401 9.79137 9.80877 9.89891 9.98907 10.0792 10.1658 10.2518 10.3326 10.4131 10.4901 10.5672 10.6465 10.668 10.6894 10.7108 10.7314 10.7518 10.8485 10.9449 11.0394 11.1307 11.2213 11.2628 11.3039 11.3433 11.3827 11.4234 11.4716 11.5198 11.5681 11.6143 11.66 11.7443 11.8288 11.9098 11.9897 12.0682 12.0865 12.1047 12.1221 12.1395 12.1573 12.2165 12.2756 12.3348 12.3918 12.4475 12.5201 12.5925 12.6615 12.7305 12.7978 12.8103 12.8225 12.8343 12.8461 12.8582 12.9119 12.9655 13.0191 13.0712 13.1217 13.1832 13.2448 13.3038 13.3618 13.4188 13.443 13.4667 13.4898 13.5129 13.5376 13.5688 13.6001 13.6313 13.6619 13.6915 13.743 13.7943 13.8446 13.8929 13.9408 13.9878 14.0336 14.0784 14.1232 14.1672 14.1756 14.1838 14.1919 14.2 14.2084 14.2419 14.2754 14.3088 14.342 14.3739 14.4124 14.4508 14.4886 14.5249 14.561 14.5958 14.6304 14.6638 14.6969 14.7295 14.7573 14.784 14.8106 14.8372 14.869 14.8714 14.8739 14.8764 14.8789 14.8812 14.909 14.9368 14.9645 14.9922 15.0188 15.044 15.069 15.0939 15.118 15.1419 15.1645 15.187 15.209 15.2305 15.252 15.2721 15.2921 15.3115 15.3309 15.3501 15.3681 15.3856 15.4029 15.4203 15.4376 15.4492 15.4607 15.4721 15.4835 15.4966 15.5004 15.5042 15.508 15.5118 15.5155 15.5295 15.5436 15.5576 15.5716 15.5854 15.5977 15.6101 15.6226 15.635 15.6473 15.6581 15.6691 15.6802 15.6912 15.7021 15.7117 15.7213 15.7312 15.7409 15.7506 15.7592 15.7677 15.7763 15.785 15.7937 15.8012 15.8088 15.8163 15.8241 15.8318 15.8386 15.8453 15.852 15.8589 15.8659 15.8719 15.8779 15.884 15.8901 15.8964 15.9018 15.9073 15.9128 15.9184 15.9241 15.9291 15.9342 15.9394 15.9445 15.9498 15.9546 15.9595 15.9644 15.9693 15.9744 15.9792 15.9841 15.9891 15.994 15.999 16.0042 16.0095 16.0148 16.0201 16.0254 16.0262 16.027 16.0278 16.0286 16.0295 16.0347 16.0399 16.045 16.0502 16.0555 16.0625 16.0695 16.0765 16.0835 16.0907 16.0995 16.1084 16.1173 16.1262 16.1359 16.1453 16.1535 16.1617 16.1698 16.178 16.1875 16.1973 16.2071 16.2168 16.227 16.2249 16.2209 16.2165 16.2118 16.1902 16.155 16.1194 16.0838 16.0471 16.0053 15.961 15.9206 15.8826 15.8471 15.8134 15.7778 15.7422 15.7069 15.6718 15.6366 15.5992 15.5617 15.5221 15.4805 15.4389 15.3945 15.3502 15.3048 15.2584 15.2119 15.1627 15.1135 15.0634 15.0129 14.9623 14.9088 14.8551 14.8005 14.7452 14.6895 14.6309 14.5714 14.5112 14.4505 14.3888 14.324 14.2577 14.1912 14.1245 14.0562 13.9844 13.9108 13.8371 13.7634 13.6882 13.6081 13.5265 13.4449 13.3633 13.2807 13.1913 13.1009 13.0104 12.9199 12.8288 12.7542 12.6791 12.6039 12.5288 12.4418 12.4188 12.3957 12.3727 12.3496 12.3264 12.215 12.1032 11.9915 11.8797 11.7668 11.6436 11.5189 11.3943 11.2696 11.1424 11.0061 10.8665 10.727 10.5874 10.4436 10.2921 10.1359 9.97965 9.82341 9.6615 9.49388 9.31748 9.14106 8.96363 8.77814 8.58674 8.39081 8.19367 7.99474 7.79172 7.58217 7.36166 7.13333 6.89545 6.64783 6.39212 6.13941 5.89149 5.64891 5.40891 5.16096 4.89938 4.58081 4.19793 3.8056 3.39961 2.99375 2.70854 2.53579 2.36311 2.18445 2.00592 1.52853 0.763699 0